0.02235505 -0.09610531 -0.10683619 3.56806799 -0.02549774 0.03050740 -0.09306603 3.65881263 -0.05568569 3.53114571 3.59356216 -0.01553068 0.05713818 0.11843782 3.48806961 3.49192965 0.03123720 3.53226307 0.07647453 3.35484546 3.40697041 3.49482847 3.47253047 3.39079037 -0.20077820 1.78633932 1.61626065 3.85719175 1.82709835 1.59919181 -0.08196139 5.35179832 1.85583347 3.60391631 5.35573267 1.80627839 -0.14996162 1.77246941 5.40752602 3.58797227 1.82892915 5.32195111 0.08172985 5.32610693 5.28177540 3.63874400 5.31362108 5.37172679 1.84817239 -0.24855743 1.63716954 5.35613709 -0.01090539 1.85718650 1.67517136 3.80188341 1.60910956 5.40130407 3.64129627 1.80070755 1.72556691 -0.09558677 5.27678091 5.33714295 -0.00270157 5.27556144 1.74683652 3.72458305 5.28213611 5.35324732 3.50640165 5.25097156 1.75727141 1.76215153 -0.12814772 5.50249269 1.80565459 -0.21282446 1.76965878 5.28667199 -0.08172770 5.37080108 5.29926534 -0.04888248 1.81444650 1.80632521 4.24605760 5.31734894 1.77749280 3.61008600 1.71176525 5.31866178 3.45626346 5.28397972 5.29794084 3.50647945 1.74466132 1.70917875 2.40059077 0.16628901 -0.15099396 -0.36209698 3.71186384 -0.08024598 -0.22486213 0.05101108 3.60409853 -0.31090332 3.67507989 3.53898630 -0.27085711 -0.10340367 0.18084378 3.77252979 3.33260321 0.09242535 3.81766884 -0.08528276 3.41575252 3.69106547 3.33428669 3.53221979 3.67583114 -0.10883719 1.75147543 1.45279374 3.94944102 1.79192377 1.43596530 0.03844445 5.30586634 1.64288119 3.72384592 5.31027682 1.59295649 -0.25671236 1.81355129 5.59486127 3.48279091 1.86843711 5.51050875 -0.04961706 5.37627255 5.51383654 3.50810688 5.36307456 5.60433895 1.94042174 -0.28338494 1.47387040 5.47606684 -0.05689181 1.64397803 1.76710999 3.76667254 1.44571747 5.52170994 3.59589268 1.58764191 1.62038775 -0.05432605 5.46496209 5.20650809 0.04754563 5.50800355 1.64008606 3.76390959 5.46984571 5.22190281 3.55577567 5.48320291 1.62279074 1.81329212 0.11037598 5.58392790 1.77468874 -0.35726195 1.85109172 5.25570589 -0.22616737 5.50687131 5.24752386 -0.29022481 1.80194316 1.81108033 4.26823436 5.18055973 1.82950646 3.85270286 1.57497829 5.37067546 3.69888022 5.12573033 5.35811089 3.78716642 1.70711043 1.72345765 2.46719609
0.21266810 0.04070335 0.02744156 3.57038659 -0.05520551 0.05218830 0.01326744 3.60613145 -0.05339860 3.63787425 3.57390930 -0.01480788 0.05544802 0.06420174 3.49971571 3.45500746 0.22044352 3.49797209 0.14649207 3.46577236 3.52889293 3.35840696 3.60714737 3.49861862 -0.25542978 1.73919538 1.63348676 3.82730902 1.77771943 1.74577371 0.00449704 5.30616338 1.88711937 3.64837982 5.30595399 1.86053570 -0.24396952 1.82705578 5.29593221 3.72597978 1.82968461 5.39126228 -0.01756729 5.26653252 5.29660136 3.56949428 5.36117803 5.34282498 1.67916862 -0.30083178 1.62728608 5.30125981 -0.03041169 1.83862103 1.78492443 3.90283550 1.66524029 5.34253237 3.69333810 1.91193102 1.84304486 -0.16840472 5.47386320 5.26744894 -0.03000881 5.42716199 1.75104001 3.64335913 5.36217876 5.27968533 3.53267466 5.29417911 1.74653545 1.76663780 -0.07605812 5.31079299 1.65317806 -0.13366699 1.65590428 5.24868281 -0.04239650 5.36660453 5.29824667 -0.03741697 1.88011966 1.79179909 4.31716987 5.39510453 1.76349805 3.53629787 1.71314091 5.34388298 3.45751635 5.40087436 5.26871372 3.58671613 1.85150552 1.79371620 2.27566963 0.16619540 0.01186874 0.32052512 3.52413906 -0.08404016 0.34530548 -0.03320677 3.57752363 0.23970498 3.59162427 3.54529935 0.27833150 0.10811956 0.09720836 3.17303087 3.50573998 0.25346671 3.17098157 0.19917949 3.49682494 3.20201714 3.40915553 3.63821569 3.17143964 -0.28484486 1.72081673 1.82106704 3.79739976 1.75934313 1.93327706 -0.03458694 5.28218590 2.13176864 3.61005314 5.28197187 2.10530486 -0.20858613 1.84819180 5.08034253 3.75885963 1.85084104 5.17527827 0.02519077 5.29266814 5.02993845 3.61112029 5.38732099 5.07598244 1.64950377 -0.31896115 1.81485124 5.26255647 -0.05477468 2.08329243 1.75526451 3.88420746 1.85275735 5.30382301 3.66973928 2.15667726 1.87716713 -0.14599691 5.25819855 5.30963501 -0.00329891 5.16046460 1.78518055 3.66324110 5.14626990 5.32188074 3.55824616 5.02737024 1.78985297 1.79347697 -0.34991602 5.28456434 1.63692874 0.03216722 1.62967525 5.23243092 0.12343769 5.32277669 5.27109239 0.23967700 1.88414638 1.79429307 4.29171360 5.43916359 1.79079519 3.25774097 1.75720039 5.37118042 3.17895855 5.45184287 5.30028967 3.26445127 1.86360114 1.80121084 2.19919635
0.02795977 -0.08402467 -0.00455044 3.64612738 -0.06453667 -0.05551406 -0.10620242 3.59342689 0.05227574 3.61985289 3.61773444 -0.05729720 0.06744299 0.13972445 3.47032499 3.55699953 0.02510548 3.46223112 -0.02214988 3.52650477 3.51071340 3.53761059 3.52027529 3.44066587 -0.30575980 1.83415254 1.69798862 3.89027111 1.81711553 1.59782867 -0.04197408 5.39306420 1.71331923 3.59608452 5.29862057 1.80653717 -0.06448618 1.84475380 5.34507407 3.63879985 1.73919174 5.32812298 -0.00172747 5.31558301 5.23508271 3.50711002 5.26905518 5.30823144 1.74784689 -0.24203015 1.63876313 5.35765678 -0.13382219 1.77467308 1.71569826 3.83996851 1.61506523 5.35477361 3.60668143 1.75397936 1.77110854 -0.19011346 5.36221369 5.34269798 -0.03109979 5.38148014 1.68072226 3.75395651 5.41337104 5.30494262 3.67223934 5.31860177 1.73798352 1.78632302 -0.16367376 5.31204303 1.77997635 -0.10610108 1.75446354 5.34457213 -0.20772602 5.41599095 5.38606343 -0.04777285 1.84974141 1.75270214 4.31909934 5.34364302 1.69654848 3.48015124 1.79512189 5.41911478 3.44482832 5.29987535 5.31408166 3.58337026 1.83998810 1.79488018 2.26947534 0.02788963 -0.08424929 0.29235198 3.64628147 -0.06475841 0.24168551 -0.10627484 3.59343150 0.34947522 3.62000963 3.61773662 0.23990235 0.06837470 0.14082873 3.13872388 3.55597264 0.02620992 3.13063246 -0.02121810 3.52565013 3.17911238 3.53658357 3.51942086 3.10906490 -0.30548334 1.83408235 1.88780939 3.89004913 1.81704523 1.78764943 -0.04232099 5.39297123 1.96128790 3.59650192 5.29852774 2.05450571 -0.06325271 1.84483539 5.12652525 3.63750722 1.73927325 5.10957414 -0.00119497 5.31568274 4.96469265 3.50650025 5.26915496 5.03784362 1.74787468 -0.24185124 1.82858168 5.35769089 -0.13429844 2.02264153 1.71572540 3.83964863 1.80488364 5.35480787 3.60696944 2.00194788 1.77107911 -0.18876897 5.14366439 5.34266020 -0.03042845 5.11109232 1.68069311 3.75277511 5.19482195 5.30490398 3.67176996 5.04821156 1.73794733 1.78642939 -0.44129071 5.31206808 1.77991287 0.06163823 1.75448875 5.34450860 -0.03998683 5.41603147 5.38595904 0.23313467 1.84973729 1.75271148 4.29413942 5.34360268 1.69665268 3.19775433 1.79508135 5.41921883 3.16243356 5.29982523 5.31419939 3.25651769 1.83997650 1.79490960 2.19263299
-0.04972924 -0.01394940 -0.00093325 3.61610810 -0.13062305 -0.09141381 -0.06501402 3.44199971 -0.07116092 3.58618313 3.59451336 -0.02281342 -0.10881582 -0.00037389 3.55872985 3.53197571 0.01697704 3.41759680 0.00905584 3.48955537 3.44058471 3.45282811 3.51048073 3.46556166 -0.23872616 1.78042126 1.68111200 3.84867083 1.81252953 1.63272010 -0.09938208 5.32918425 1.89802488 3.54556742 5.38450288 1.78415664 -0.17322753 1.72105618 5.27889275 3.64391143 1.75963429 5.40476138 -0.04069616 5.32043030 5.28343328 3.54501598 5.28858569 5.34246805 1.76584594 -0.25944378 1.59222170 5.27886975 -0.17259170 1.86814033 1.83822678 3.82720590 1.55516118 5.31165380 3.60488565 1.68405666 1.76137553 -0.20726696 5.37149753 5.26654588 0.01978864 5.36339412 1.74067232 3.56872849 5.38345785 5.32318224 3.53806289 5.33038321 1.78259063 1.80044376 -0.25087486 5.21433512 1.80108712 -0.11739417 1.88353546 5.33230247 -0.18289043 5.32934341 5.31240591 0.00980002 1.76963049 1.72414495 4.36110586 5.29493258 1.70269056 3.38789330 1.77577936 5.33722494 3.55892537 5.34231091 5.27968518 3.60293597 1.83112893 1.77247436 2.39377097 -0.17755245 0.20311420 -0.16040724 3.48842092 0.08659257 -0.25079260 -0.19268529 3.65903158 -0.23080273 3.45864783 3.81169720 -0.18235553 0.03484879 -0.24202953 3.73635134 3.67445429 -0.22599594 3.59437252 0.15140067 3.24817415 3.61963449 3.59398697 3.26778226 3.64376817 -0.32026808 1.91951206 1.57915954 3.76682714 1.95128477 1.53055220 -0.20620980 5.51019562 1.76469149 3.43920222 5.56602904 1.65115206 -0.07846326 1.56206071 5.39686793 3.73714273 1.59893802 5.52164809 0.07584809 5.12321479 5.42884377 3.66086633 5.09060144 5.48738652 1.68432204 -0.12055472 1.48998127 5.17201478 0.00873263 1.73524908 1.75636526 3.96616540 1.45328362 5.20531595 3.78610341 1.55060759 1.85622605 -0.36728971 5.48800561 5.38312867 -0.17788954 5.50814249 1.83381755 3.40905948 5.50181167 5.43899416 3.34054356 5.47596375 1.90188533 1.59758194 -0.10184318 5.14209914 1.92393081 -0.20763922 1.81129714 5.45514618 -0.27313550 5.20864038 5.51766446 -0.14099147 1.78072101 1.70528316 4.37496059 5.41627288 1.49634814 3.53948282 1.89711721 5.13088254 3.71051271 5.48268522 5.04096376 3.77831039 1.86443949 1.71582807 2.43538541
-0.03643899 -0.09523463 -0.11012541 3.63597437 -0.03335618 0.00973376 -0.03893368 3.60797407 -0.04823894 3.59552979 3.58922133 -0.03160081 0.16428986 0.03148856 3.41996196 3.58352301 0.00171618 3.44609525 0.03073732 3.53158530 3.43299174 3.44730491 3.51269533 3.44876586 -0.23666576 1.80533430 1.52739286 3.85481386 1.75307239 1.69275289 -0.09665049 5.28627980 1.69681739 3.56066590 5.33148773 1.72515936 -0.11794877 1.76256279 5.46138917 3.82718275 1.69820044 5.35971831 -0.00682909 5.31057291 5.38138050 3.60182828 5.36900056 5.38770742 1.77647767 -0.14390543 1.66480499 5.28307165 0.01692430 1.75572581 1.82588013 3.74816352 1.61718434 5.20879015 3.71527312 1.73628475 1.74910383 -0.21861280 5.31109081 5.37805779 -0.01256995 5.37766873 1.69271880 3.66327815 5.34946810 5.25824321 3.65456334 5.24364546 1.73521528 1.73385614 -0.24810609 5.25980821 1.76698995 -0.22568807 1.80602431 5.28102497 -0.08405462 5.31260492 5.34374411 -0.00197382 1.84970997 1.84652048 4.27892776 5.32873344 1.73073859 3.51429678 1.68206381 5.23141778 3.56634988 5.31447617 5.38581988 3.57156887 1.71071008 1.83240893 2.32776287 -0.00778344 -0.14027992 0.18319648 3.66485430 -0.07839916 0.30303308 -0.01027844 3.56315567 0.24511682 3.62441183 3.54440293 0.26173226 0.13318556 0.08258371 3.09284220 3.55046396 0.05279574 3.11916575 -0.00038054 3.58073936 3.10557703 3.41423242 3.56183354 3.12153948 -0.21800818 1.77658831 1.71505021 3.87297251 1.72432195 1.88045734 -0.07301572 5.24876519 1.94174395 3.58506492 5.29397764 1.97001113 -0.13786480 1.79565119 5.24531912 3.80474297 1.73127074 5.14389370 -0.03244129 5.35146901 5.11437633 3.57507555 5.40988712 5.12081180 1.79488805 -0.17240662 1.85252378 5.30708765 -0.02096674 2.00055720 1.84428606 3.71916576 1.80482804 5.23281044 3.67813948 1.98123182 1.72793377 -0.18428175 5.09533616 5.35187865 0.02888806 5.11080487 1.67153061 3.69510332 5.13333050 5.23205728 3.69488988 4.97660949 1.70833788 1.77583790 -0.52216689 5.27608487 1.74156828 -0.05973136 1.82230086 5.25560330 0.08190142 5.33980228 5.30126767 0.27532507 1.84721141 1.85042245 4.25344977 5.30139342 1.77343919 3.23553535 1.65472372 5.27411830 3.28758838 5.28284120 5.43521675 3.24906526 1.70320434 1.84413242 2.25123420
-0.07652380 -0.00908179 -0.09527244 3.65346935 -0.03486458 -0.01461046 0.00142557 3.58755886 0.05387900 3.53149603 3.62901160 -0.01158575 0.07625634 -0.07754258 3.45068426 3.39949201 0.04926080 3.44855221 0.09958244 3.43575842 3.39665375 3.45195911 3.45423974 3.43448865 -0.21807883 1.73638229 1.56267195 3.90332621 1.71317626 1.54518362 -0.08360761 5.30662154 1.85372616 3.52889078 5.41897768 1.75961979 -0.10769054 1.81138645 5.41698089 3.63661815 1.72261551 5.42861431 -0.12252359 5.39734016 5.26158111 3.60641909 5.36979838 5.45059777 1.72997125 -0.23223885 1.66739013 5.36850089 -0.08962363 1.82073474 1.75669544 3.82740268 1.53402965 5.33634837 3.68183335 1.79425915 1.78290664 -0.16264071 5.54251855 5.22966012 -0.01128556 5.34405146 1.82342113 3.66863558 5.38076816 5.27165202 3.56088422 5.33749538 1.77629781 1.72493901 -0.27266495 5.36119151 1.74046195 -0.12390009 1.78734431 5.31411154 -0.11945464 5.39493005 5.31864427 -0.07645149 1.84997540 1.67811185 4.35721754 5.34869971 1.71399358 3.60858969 1.72215681 5.30154788 3.53168597 5.46498399 5.28229371 3.58750206 1.69396962 1.70499121 2.27087800 0.09336760 0.12929720 -0.29745185 3.82335652 0.10333075 -0.21691935 0.17112922 3.72601461 -0.14840445 3.70119699 3.76727937 -0.21399894 -0.11394829 -0.23230948 3.67530652 3.20930531 -0.10389213 3.67429412 -0.08900751 3.28034063 3.62218755 3.26338748 3.30043666 3.66113931 -0.10943863 1.82468234 1.43309299 4.01197041 1.80188604 1.41588866 0.05815453 5.42241982 1.68505500 3.67064350 5.53414527 1.59051107 -0.23270723 1.70850834 5.56518839 3.51162695 1.62182129 5.57826569 -0.27705662 5.27098403 5.44535871 3.45189742 5.24438325 5.63502883 1.83840720 -0.14365101 1.53783784 5.51057334 0.02573232 1.65202261 1.86554395 3.91582510 1.40470941 5.47779060 3.79744295 1.62519135 1.65686038 -0.26405639 5.69086179 5.07466218 -0.13697906 5.52789068 1.69945907 3.56638082 5.53028610 5.11759567 3.43480968 5.52186505 1.61765464 1.59569812 -0.08365864 5.45725839 1.81872327 -0.23835452 1.88341096 5.39237072 -0.23390923 5.55544731 5.44941057 -0.26769234 1.83522624 1.66609715 4.37478939 5.18733489 1.58253812 3.80084137 1.56079149 5.17009197 3.72393559 5.27830183 5.13021289 3.80992355 1.64966950 1.66890213 2.32365704
-0.09735886 -0.08320966 0.01506543 3.57194679 0.01335715 -0.00026520 -0.00713551 3.53624822 -0.11719276 3.49969268 3.63951988 0.05747508 0.08901336 -0.02984126 3.49961787 3.46145438 0.06272148 3.45803668 0.02565656 3.49438428 3.54471501 3.46768272 3.46899040 3.48207809 -0.22941296 1.82774184 1.57199799 3.84282743 1.77838148 1.56627691 0.08179866 5.33797662 1.86460054 3.68425311 5.23748666 1.77170722 -0.11195407 1.62852124 5.29797483 3.56772777 1.78691619 5.34928616 -0.03232019 5.37697569 5.30261909 3.58638562 5.33941709 5.33046540 1.71636505 -0.26271075 1.65457041 5.40537155 -0.09239895 1.89248917 1.77470841 3.78555231 1.48656346 5.31254002 3.61787161 1.86825426 1.77430884 -0.07625828 5.40563796 5.32405182 -0.03621246 5.27830416 1.82830842 3.67066069 5.32987776 5.31362529 3.55218057 5.27207994 1.72061980 1.87680539 -0.12947580 5.36586031 1.83104673 -0.09629895 1.75952319 5.35897735 -0.07193280 5.34213147 5.23066303 -0.23523392 1.73273689 1.71117125 4.31946671 5.32460230 1.78385961 3.52009690 1.66557997 5.31821628 3.58531137 5.34016312 5.33631803 3.43452288 1.73684081 1.76982100 2.36924758 -0.03512549 -0.03479703 -0.27246026 3.63412823 0.06155465 -0.28783929 0.05488037 3.58472210 -0.40475498 3.56165861 3.68777611 -0.23013486 0.01858902 -0.08442858 3.82000370 3.39147698 0.01000034 3.77883061 -0.04289714 3.43928042 3.86541523 3.39957369 3.41575451 3.80318976 -0.18973717 1.85843115 1.38795021 3.88261664 1.80954473 1.38233318 0.13373052 5.37869543 1.62459890 3.73601264 5.27747527 1.53154659 -0.15796086 1.59172982 5.50941666 3.52229693 1.75253736 5.56125698 -0.08896416 5.33244304 5.56420551 3.53000014 5.29597250 5.59229245 1.75585936 -0.23171986 1.47053395 5.45758243 -0.05214515 1.65246899 1.81468115 3.81641175 1.30260864 5.36402070 3.65832741 1.62811151 1.72738372 -0.11150992 5.61713863 5.26699074 -0.08004916 5.53991812 1.78379833 3.63474256 5.54178926 5.25765481 3.50804223 5.53388001 1.66259698 1.83164202 0.13920332 5.40099425 1.85839370 -0.25899766 1.79465918 5.38632437 -0.23463111 5.40083890 5.27635692 -0.50708638 1.72734236 1.70697194 4.34444494 5.26558663 1.73792519 3.79338502 1.60656416 5.27228230 3.85859911 5.27189083 5.28317726 3.75069395 1.72063848 1.75721059 2.44427469
-0.06664046 -0.08581254 -0.01569664 3.66708174 -0.14922887 -0.13051033 -0.09658097 3.67797193 -0.01453488 3.58207278 3.65771971 0.08929803 0.14403490 0.04576088 3.53067199 3.52677115 -0.05403701 3.52533071 0.09538402 3.47479732 3.49169986 3.38671094 3.49229338 3.46800898 -0.25552028 1.68717428 1.56262483 3.91429773 1.75717601 1.57716730 -0.10390136 5.39441875 1.90007134 3.57171653 5.37543790 1.83477137 -0.16851305 1.71516428 5.34364168 3.64092230 1.75001464 5.41484528 -0.03243628 5.26626910 5.39690963 3.54262469 5.35779500 5.36547657 1.72252809 -0.30523329 1.63740897 5.28819657 -0.19858820 1.74887376 1.76909600 3.90435038 1.52248165 5.37418414 3.55573852 1.77782543 1.75940441 -0.07335383 5.35888669 5.38848566 0.01044335 5.25157973 1.88868561 3.70551584 5.29358880 5.34026357 3.55649344 5.16956689 1.79223977 1.75395859 -0.18704382 5.25275163 1.74877765 -0.16000020 1.74769001 5.26609953 -0.03439626 5.28871646 5.41407128 -0.15556719 1.82546876 1.73409115 4.33289514 5.27553254 1.77701949 3.61134315 1.71698888 5.24764261 3.42295298 5.35445870 5.33853126 3.63278648 1.77651913 1.70499429 2.24193656 -0.02001212 -0.15404145 0.27076171 3.71393444 -0.21745130 0.15591187 -0.04994830 3.60996736 0.27197545 3.62893001 3.58971748 0.37577199 0.09288532 0.12271094 3.21122310 3.47368280 0.02287633 3.20619006 0.04420064 3.54983586 3.17180218 3.33358866 3.56729550 3.14841971 -0.22536601 1.64359612 1.74587627 3.94395982 1.71358880 1.76049813 -0.06525734 5.33754341 2.13929367 3.61111779 5.31857614 2.07387327 -0.20167184 1.76533430 5.13254670 3.60525993 1.80013722 5.20414693 -0.07441186 5.32826924 5.13611384 3.49952013 5.41977440 5.10485980 1.75243961 -0.34857121 1.82075566 5.32721245 -0.25583035 1.98794856 1.79899845 3.86052273 1.70571510 5.41321319 3.49924417 2.01707459 1.72501668 -0.02197294 5.14828140 5.34595504 0.07299214 4.99100587 1.85425263 3.75442736 5.08240324 5.29771308 3.61792690 4.90873032 1.74857080 1.81760257 -0.45469468 5.27919830 1.71024019 0.00207480 1.77413659 5.22755990 0.12767840 5.33290473 5.34967659 0.11524506 1.82140754 1.74000722 4.30801102 5.23111070 1.84175187 3.33910089 1.67256681 5.31237483 3.15071043 5.30306355 5.41341802 3.31782729 1.76432434 1.72276510 2.16720045
-0.05202987 -0.08482305 -0.09410026 3.57673918 0.03798798 -0.07897162 -0.06545493 3.64988150 -0.08776943 3.65116507 3.58568382 0.05655993 0.06557199 0.04126274 3.53230412 3.48422017 0.10660913 3.48854629 0.04104768 3.48131895 3.46218642 3.43092944 3.47272556 3.51975130 -0.28114693 1.82893872 1.50555567 3.87058611 1.66718520 1.67788818 -0.08452325 5.31824364 1.86788620 3.51262162 5.33207786 1.82956790 -0.20962442 1.71244732 5.39175849 3.74022372 1.72585628 5.33753866 -0.05518134 5.40279222 5.38774143 3.63033867 5.34362720 5.32919212 1.83913942 -0.35272364 1.69350831 5.33618196 -0.04020750 1.73905651 1.75771970 3.84064948 1.54374827 5.21538531 3.61833929 1.88884503 1.71401688 -0.09668095 5.28974737 5.27841519 0.10591769 5.34249819 1.76418633 3.80793858 5.33414504 5.38069707 3.55194640 5.45769582 1.78004020 1.75613281 -0.27226655 5.28331676 1.80211302 -0.23563516 1.81509356 5.26301438 -0.07450105 5.16733824 5.29529210 -0.14530303 1.74728061 1.87370111 4.37073099 5.26361328 1.77316609 3.52496945 1.65488901 5.25804622 3.51390098 5.25257842 5.31864218 3.60873313 1.75952983 1.77882917 2.37463508 -0.17370373 0.17829552 -0.16376033 3.45524458 0.30121298 -0.14854093 -0.18701979 3.91299534 -0.15763124 3.52977711 3.84890403 -0.01320740 0.20235683 -0.25182869 3.60959696 3.61946755 -0.18740270 3.56503629 0.17690733 3.18826183 3.54121154 3.56525372 3.17874535 3.59797378 -0.35871002 1.99744354 1.46105199 3.79263099 1.83545380 1.63318049 -0.18628775 5.53777516 1.80952760 3.41145794 5.55196988 1.77152250 -0.11915933 1.51929961 5.44359977 3.82870238 1.53151573 5.38834374 0.05586881 5.16355790 5.45141962 3.74049315 5.10385327 5.39240298 1.76149711 -0.18434160 1.64868267 5.23453758 0.17951236 1.68119244 1.67984166 4.00903822 1.49936479 5.11410149 3.83804536 1.83030533 1.80408541 -0.29044573 5.33995163 5.38928612 -0.13359520 5.40543710 1.85306199 3.61421456 5.38658733 5.49102838 3.31245193 5.52164375 1.89359120 1.51025046 -0.20713275 5.21455920 1.95100685 -0.27507747 1.74633348 5.41191106 -0.11394343 5.05244932 5.54408142 -0.21120777 1.75783850 1.85084167 4.37678765 5.37911008 1.52306372 3.59122103 1.77038571 5.00794389 3.58015274 5.38619321 5.02929495 3.68538164 1.79123764 1.71016871 2.39282333
-0.15924578 -0.14767016 -0.04146685 3.61219822 -0.06440296 -0.05906129 -0.07609831 3.62619863 -0.05852462 3.54569514 3.66231163 -0.01398406 0.10182988 0.15167531 3.48344961 3.59575978 0.00195765 3.46097187 0.11441064 3.51686492 3.59373037 3.38640043 3.47338496 3.47255851 -0.23466923 1.72036100 1.64388969 3.85448246 1.78671498 1.61696020 -0.00745727 5.38719323 1.81537345 3.61419757 5.16984128 1.87980889 -0.16942303 1.73891979 5.27687180 3.67130399 1.78165498 5.31485073 -0.05616970 5.22826275 5.39760365 3.58846583 5.29240133 5.29725437 1.75606646 -0.29467362 1.61881557 5.20353478 0.04313909 1.87932354 1.66732300 3.84482022 1.55390577 5.36102621 3.73977058 1.83436255 1.76338940 -0.16474169 5.37186459 5.22852062 -0.03884704 5.37685388 1.69284143 3.67286291 5.36570378 5.36670980 3.44741668 5.26677383 1.64910426 1.82172287 -0.26145510 5.25774921 1.74052938 -0.20581168 1.69361757 5.40283999 -0.21597992 5.30327460 5.32229186 0.00274831 1.80236811 1.82688716 4.24847336 5.31708598 1.81475530 3.46642415 1.81829913 5.35117068 3.61155908 5.30573447 5.31007657 3.46455018 1.71381966 1.86163209 2.33999882 -0.26757932 0.04090168 0.16247468 3.50407302 0.12420067 0.14496186 -0.18440244 3.81494516 0.14527182 3.43760180 3.85108769 0.18989640 0.22356936 -0.05788525 3.25574391 3.71568972 -0.20787032 3.23255426 0.23588260 3.30580548 3.36726726 3.50606280 3.26206026 3.24538346 -0.30367853 1.84111643 1.77445016 3.78501280 1.90740260 1.74733933 -0.09815598 5.54465857 1.98547379 3.52420637 5.32741095 2.05018808 -0.08858609 1.60019154 5.12721379 3.74980297 1.64258215 5.16426961 0.04284185 5.05663430 5.21223823 3.68642073 5.12061635 5.11147159 1.68686219 -0.17376167 1.74912676 5.11313541 0.20036407 2.04980707 1.59805063 3.96534906 1.68453442 5.27073347 3.89758057 2.00436077 1.84323086 -0.30267626 5.22094359 5.32708086 -0.21011729 5.19091714 1.77233595 3.53299405 5.21638821 5.46511370 3.27527340 5.08156024 1.75021332 1.64544347 -0.45197258 5.19652450 1.84727576 -0.09044399 1.63239289 5.50958640 -0.10061221 5.20097282 5.50065503 0.19551743 1.81176745 1.81049665 4.23076090 5.41992749 1.63544882 3.27263686 1.92114067 5.17186636 3.41777406 5.42470760 5.10263413 3.24035710 1.74205313 1.81240774 2.28679946
-0.10113086 0.00121431 0.02551591 3.63513588 -0.01229336 -0.03589921 0.00012355 3.49843261 -0.03227616 3.68849055 3.64701570 -0.09239586 0.08994437 0.03437131 3.48376526 3.42052872 -0.00288089 3.42868331 -0.00402621 3.51435611 3.43888465 3.46277486 3.45207473 3.51340612 -0.25860852 1.74936517 1.61997613 3.88374410 1.69217651 1.56181716 0.00515447 5.30614235 1.81337445 3.48305236 5.30097079 1.82031135 -0.15050104 1.79621148 5.41949550 3.71002154 1.73735298 5.28412548 0.03242910 5.29222224 5.29279732 3.54234831 5.33367247 5.31595716 1.77103553 -0.38162987 1.66132361 5.32317987 -0.06518647 1.78154196 1.81252080 3.86527572 1.61719772 5.29982198 3.62457401 1.89248380 1.84773723 -0.18461983 5.32065130 5.43227126 -0.06876376 5.36142155 1.76959681 3.75209681 5.32046392 5.36648429 3.56974902 5.37083434 1.77861924 1.83085805 -0.18974365 5.24931716 1.78595287 -0.05899254 1.79200720 5.29073537 -0.09768111 5.27406807 5.48450937 -0.05458363 1.69955375 1.76722790 4.26855786 5.28524466 1.71059853 3.49021796 1.84350177 5.36258260 3.56792546 5.33061276 5.35792898 3.54387590 1.66136282 1.80159280 2.38853553 -0.17349171 -0.04752733 0.31060493 3.56299526 -0.06103941 0.24924383 -0.07224183 3.44991546 0.25285200 3.61634553 3.59849190 0.19278576 0.17146581 0.08956405 3.16612823 3.50014543 0.05235267 3.11057012 0.07753613 3.56761240 3.12092753 3.54243252 3.50537154 3.19497268 -0.30459523 1.71824239 1.80247901 3.83727212 1.66106519 1.74419745 -0.05553974 5.26554809 2.05133176 3.42310218 5.26036067 2.05845457 -0.09607632 1.83198973 5.20988525 3.76198594 1.77318348 5.07390043 0.09873985 5.33646952 5.03344084 3.60754807 5.37794257 5.05632369 1.72480182 -0.41250094 1.84380583 5.26286449 -0.10616847 2.01953146 1.76629603 3.83391040 1.79959805 5.23949041 3.58434919 2.13059834 1.90090563 -0.14756489 5.11093891 5.49801545 -0.02393812 5.10201883 1.82281518 3.78664835 5.11033909 5.43225097 3.61344513 5.11124587 1.84613015 1.87629842 -0.45615225 5.20843871 1.75843772 0.10233261 1.75112893 5.26322001 0.06364423 5.20576434 5.43853441 0.21496920 1.70583136 1.77145308 4.24378544 5.35390963 1.75681635 3.21923970 1.91216651 5.40880047 3.29694719 5.41004822 5.41139623 3.23037823 1.68021297 1.81428201 2.31414614
-0.13247215 -0.15309822 -0.04433370 3.68193447 -0.02861910 -0.10925379 -0.08843521 3.63939346 -0.05068622 3.56431347 3.67211103 0.09705313 0.08805668 0.09299517 3.61034896 3.47157610 0.14382160 3.54764098 -0.03982244 3.43106859 3.39377611 3.58096021 3.38914341 3.49925301 -0.36276733 1.87769838 1.58846856 3.88142710 1.76020344 1.52666200 -0.06319126 5.36605320 1.83576976 3.58425217 5.29038535 1.88526579 -0.07773204 1.75703739 5.36371444 3.61357952 1.70950940 5.39128022 0.08503470 5.36588178 5.29157479 3.62777033 5.35596619 5.38777047 1.75459284 -0.29334311 1.58357570 5.31066985 -0.01090474 1.75818780 1.86796882 3.86785681 1.66909140 5.26819052 3.67513913 1.95197193 1.83249261 -0.04816436 5.40347967 5.30619225 -0.03658230 5.28048266 1.76581517 3.76257349 5.27066629 5.27259152 3.60070024 5.34570488 1.76468611 1.85279532 -0.19042340 5.37161117 1.72302749 -0.06063230 1.85951904 5.25018157 -0.06539685 5.41331923 5.27336020 0.02238711 1.88142946 1.71858811 4.24015593 5.32529579 1.85575770 3.49678781 1.82182056 5.18441811 3.58130780 5.23964910 5.36459692 3.57557345 1.76178482 1.78778746 2.33921479 -0.05044524 -0.41855250 0.06379730 3.76417496 -0.29403256 -0.00118421 -0.00636736 3.37403432 0.05764905 3.64659425 3.40679264 0.20532478 -0.00247400 0.38959095 3.49026756 3.37919064 0.44006333 3.42809927 -0.13070463 3.72684271 3.27194443 3.48822357 3.68456375 3.37796312 -0.30996491 1.70793954 1.65763155 3.93375556 1.59035385 1.59596307 0.00503292 5.14442158 1.92620930 3.65320228 5.06889237 1.97549455 -0.13701519 1.95264273 5.28370806 3.55190170 1.90465873 5.31196961 0.01080831 5.60750673 5.19294493 3.55246207 5.59738450 5.28945539 1.80720275 -0.46304098 1.65302873 5.37918833 -0.23262951 1.84818016 1.92049049 3.69794854 1.73810051 5.33684767 3.45373673 2.04264711 1.77223889 0.14774499 5.32494912 5.23152814 0.20517875 5.18252146 1.70510795 3.95741848 5.18987969 5.19772107 3.84198289 5.24672364 1.68793148 2.10075145 -0.29151826 5.41809175 1.57287850 0.00058483 1.90599942 5.10003250 -0.00417950 5.49098318 5.02247504 0.12467677 1.87429315 1.74164081 4.23075653 5.24722168 2.10796742 3.39395842 1.74374598 5.43662597 3.47847821 5.14931875 5.65637683 3.45660829 1.74035185 1.85702523 2.31098593
-0.00239773 -0.00392518 -0.05242337 3.65824209 -0.08393728 0.07811565 -0.02104351 3.56137777 -0.00151541 3.59457606 3.41168050 0.02722764 0.01424894 0.06102417 3.42242158 3.43725794 0.03842057 3.44004150 0.13694243 3.51429843 3.50259199 3.49498791 3.41195445 3.42201811 -0.41081486 1.76112101 1.60047156 3.75287402 1.77144063 1.63876981 -0.10041239 5.29314573 1.93639190 3.50936421 5.30319989 1.85663461 -0.14567494 1.74690925 5.36130838 3.77357258 1.71796344 5.34728362 0.13727126 5.25427319 5.37307612 3.61291767 5.30658817 5.36902597 1.74531281 -0.29014161 1.63739429 5.46203922 -0.10298980 1.77307061 1.62476696 3.76031118 1.59398202 5.39715696 3.57975082 1.74598509 1.73149648 -0.27633509 5.39512592 5.29147438 -0.02026257 5.30577780 1.78444347 3.68967981 5.36476248 5.34921868 3.54942781 5.18037260 1.77703823 1.87427474 -0.18866302 5.25993431 1.75145045 -0.14589039 1.78070588 5.38356280 -0.13065768 5.37648296 5.29284102 0.01572371 1.75573384 1.85404823 4.25661673 5.41169928 1.71692512 3.40221255 1.77435531 5.30694604 3.63636662 5.29324877 5.24200211 3.55325866 1.70699524 1.73293955 2.31436018 0.01654557 0.01473255 -0.34937583 3.67718084 -0.06550655 -0.21884993 -0.00232919 3.58004158 -0.29848107 3.61328818 3.43011796 -0.26975196 -0.00775339 0.03938223 3.75353082 3.41529895 0.01873808 3.77127591 0.11689939 3.49260652 3.83382154 3.47498779 3.39222189 3.75337243 -0.39877392 1.77273786 1.41044695 3.76492609 1.78355622 1.44877652 -0.08468443 5.30901403 1.68848778 3.52507619 5.31830199 1.60868201 -0.15956386 1.73198844 5.57985335 3.75973786 1.70557324 5.56599199 0.12012399 5.23682198 5.64330011 3.59579531 5.29027994 5.63932257 1.75710866 -0.27826826 1.44736973 5.47814091 -0.08751383 1.52516615 1.63706420 3.77217295 1.40398884 5.41249487 3.59524543 1.49803294 1.71636934 -0.28995872 5.61367529 5.27376717 -0.03712609 5.57600428 1.77184699 3.67599286 5.58346581 5.33265405 3.53253455 5.45066979 1.75944404 1.85694358 0.08879731 5.27058718 1.76194259 -0.31390619 1.79135899 5.39405490 -0.29867357 5.39428333 5.31037627 -0.26501565 1.75409876 1.85243747 4.28241430 5.39380614 1.69929948 3.68443500 1.75646189 5.28932029 3.91858707 5.27255031 5.22161485 3.87976315 1.70208374 1.72810057 2.39183606