-271.25233868
-270.86466973
-271.56703535
-271.33194624
-271.13608410
-270.92739406
-271.18691968
-270.82653705
-270.93009213
-270.82051288
-271.28236562
-270.76126781
-270.86443068
-270.75199873
-271.03495307
-270.82604312
-270.81655026
-270.79777852
-271.30290114
-270.88556465
-270.77496143
-270.85480966
-269.78995984
-271.49161261
-270.78596594
-271.56692136
-270.80348539
-271.10724746
-271.22980707
-271.17864080
-271.40829604
-271.35926048
-271.27569235
-271.56088068
-271.17315610
-270.88450790
-271.10480208
-271.26372883
-270.57266062
-270.73836414
-270.46106168
-270.70641713
-271.30212137
-270.74751512
-271.06251845
-271.57913825
-271.33314706
-271.04691639
-271.14761408
-271.14277868
-271.18344560
-271.33451295
-271.36214262
-270.58412204
-271.21970754
-270.79509003
-270.84607783
-271.10087393
-271.21298846
-271.28235225
-271.68594253
-270.88881288
-271.35108153
-271.71213507
-271.49755476
-270.90225098
-271.55298520
-271.02916693
-271.23498267
-271.27392450
-271.49897385
-270.50997189
-270.80211194
-271.61967286
-271.25856858
-271.41305802
-270.86233843
-271.28721174
-271.50750799
-271.13153329
-271.50932389
-271.31721099
-271.44184251
-270.86331832
-271.18431240
-271.03001027
-271.52152459
-271.18764225
