-0.37021703 0.24477454 0.73467838 0.34185642 0.15865580 -0.60461310 0.70384234 -0.29359069 -0.07410260 0.46031442 -0.20408166 -0.08710372 -0.03906987 -0.37539367 -0.15810784 0.13291400 0.07388942 -0.39891613 -0.16775846 1.08427612 0.65451382 -0.10268235 0.42966366 0.17688862 -1.56053930 -0.22066742 -0.78234709 -0.03155750 -0.33473727 -0.32109869 0.34972333 0.19366530 -0.26374341 0.01517838 -0.34231835 -0.06739174 1.86513923 -0.05313416 -1.27934473 1.75542083 -0.18286764 1.61981054 -1.14009095 -0.08357291 -0.09568400 -0.61660271 0.07180998 -0.44626996 -0.67960540 -0.58012555 -0.65235765 -0.31392581 0.08203971 -0.59966527 0.64635273 -0.20077962 -0.18137303 -0.67106484 -0.61005065 -0.18567602 0.71145942 -0.85412947 1.13096355 -0.24422980 -0.52600017 0.66582712 0.45911554 0.13262209 0.67920097 -0.41355761 1.07164841 0.50710885 0.16612503 0.17818605 -0.20617840 -2.40587077 -0.41041813 2.17354147 0.21086613 0.41313136 -0.57948611 -0.40403828 0.54329854 -0.42470813 -0.83190615 0.12351589 2.66594122 -0.19928751 -0.07909467 -1.41051911 0.63859262 -0.13012366 0.34968298 0.27244293 0.11312950 0.56935581 1.46266099 0.56677930 -3.10882658 0.00610152 -0.00171206 -0.01075780 0.05813632 -0.02147013 -0.10466848 -0.01863773 0.00626584 0.03153591 0.03980635 -0.01572151 -0.07156388 0.02293241 -0.00939419 -0.04214949 -0.00247755 0.00083071 0.00408702 0.04471206 -0.01667391 -0.07950516 0.00359396 -0.00089921 -0.00580485 -0.00581525 0.00195113 0.00852126 0.06375716 -0.02370494 -0.11296595 -0.00134490 0.00109271 0.00386130 0.00116455 -0.00083132 -0.00227602 0.04240934 -0.01660227 -0.07252912 0.00652797 -0.00212691 -0.01011313 0.02998900 -0.01098299 -0.05106041 -0.01838959 0.00737830 0.03264640 -0.00005258 -0.00043769 0.00246467 0.01124716 -0.00392059 -0.02002317 0.02974607 -0.01035190 -0.05042033 -0.00442656 0.00142463 0.00835027 -0.00040093 0.00045775 -0.00033501 -0.02221329 0.00777199 0.03921529 -0.00446002 0.00179580 0.00922466 -0.00400494 0.00111631 0.00628879 -0.02540518 0.00948896 0.04437906 -0.00098934 -0.00116583 0.00037683 0.02539780 -0.00931429 -0.04373802 0.02977392 -0.01103172 -0.05128396 -0.00271954 -0.00004225 0.00445753 0.02442181 -0.00932154 -0.04193359 0.01973760 -0.00742023 -0.03369933 0.01375812 -0.00423297 -0.02343145 0.02025426 -0.00815874 -0.03546013
-2.74472199 -0.60787302 -0.82678332 0.11762889 0.09625931 0.14935722 -0.97721132 -0.62824691 0.51964642 -0.07772199 0.24118998 0.37390305 0.19917747 0.17257029 0.28416566 0.36826341 -1.59860630 0.19898455 -0.25303000 -0.27337087 -0.56289004 1.09129297 -0.70748008 0.22697646 -0.30814487 0.61757296 -0.38666713 1.69892833 0.66520144 -1.76954465 -1.52372547 0.13007989 -0.66903805 -0.32424646 0.73722647 -0.23267112 1.36318432 -0.61654275 0.51157017 -0.24755475 -0.47288102 0.11994695 0.05490727 0.76644651 0.59367919 -0.16914610 -0.38508791 0.15588387 1.56653282 0.61214830 0.65314361 0.37801010 -0.47764852 0.11895578 0.11088247 -1.17129834 -0.34014403 0.04982329 -1.23200655 -0.82775108 -0.21386157 0.52199861 -1.14075723 0.65041361 -0.42686154 -0.92533244 0.38944046 0.76126481 0.66804075 0.27104849 0.67952783 0.61771202 0.53162144 0.52042768 -0.98664848 0.32442179 1.00824686 1.56223927 1.19171585 0.15060994 -1.10159851 -0.01091062 0.07550904 0.08979838 -1.82285428 -0.91233467 -0.02179052 -0.40438142 0.14072128 -0.15597990 0.78071061 0.69484494 1.63943664 -0.65131895 0.84347063 0.23555716 -1.40917380 0.07492167 1.22859936 0.01151827 0.00636030 -0.07413082 -0.00288893 -0.00191735 0.01627381 0.00228474 0.00108483 -0.01687499 -0.00973795 -0.00572376 0.05903316 -0.00524580 -0.00317807 0.03002308 0.00604784 0.00457458 -0.04083493 -0.01294735 -0.00810561 0.08366706 -0.00551347 -0.00240351 0.02638531 -0.00828844 -0.00510758 0.05388429 0.01248007 0.00859707 -0.08416055 0.01043786 0.00594440 -0.06745056 -0.00309297 -0.00174707 0.02196342 0.00030013 0.00100152 -0.00605767 -0.00890091 -0.00652806 0.06151171 0.00319211 0.00289937 -0.02670444 0.00876937 0.00518626 -0.05765932 -0.00564763 -0.00355998 0.03822090 -0.00302906 -0.00161474 0.01517244 0.00828579 0.00501810 -0.05040474 -0.00448790 -0.00200999 0.02551200 0.00208083 0.00027801 -0.00806752 0.00437893 0.00328631 -0.03257610 -0.00446777 -0.00290326 0.03219357 -0.00498007 -0.00241377 0.02785434 -0.00791741 -0.00447569 0.04547546 0.00190766 0.00250287 -0.01322384 -0.00022289 0.00046981 0.00023814 -0.01347960 -0.00773762 0.08189155 -0.00154695 -0.00310562 0.00500375 -0.01117595 -0.00595340 0.07138036 -0.02083283 -0.01331852 0.13628376 -0.00455154 -0.00335431 0.03090088 0.00908660 0.00566654 -0.06518619
-0.21866369 1.03771376 -0.53685466 -0.69779822 0.18923262 0.32427873 0.43983093 -0.14195840 -0.85379502 -0.41370656 -0.21125969 0.27640194 0.10405229 -0.48401505 0.08384799 -0.23971176 0.17949687 -0.13387426 0.76535080 -0.15888121 -0.35250281 -0.51435360 -0.29262557 0.25850798 0.55709967 -0.63547605 -1.09006908 -0.27592959 -0.53522434 0.01879049 0.12248029 -0.43663426 1.45405217 -0.10480617 0.26759828 -0.39755086 -1.00764733 -0.22442011 0.55615481 1.71811539 0.28481934 0.96664769 -0.44718072 0.43849317 0.76063077 0.77318770 0.53755124 0.03935313 0.68248540 -0.23414775 -0.87545890 -0.43374467 0.82360367 0.34288213 0.43108576 0.18248326 -0.43708566 -0.42474772 0.43927430 0.73068106 0.14029579 0.86295590 -0.54407623 0.09708049 0.45846460 -0.71131280 0.45714697 -1.49167003 -0.92822543 0.05923291 -1.14325212 0.15157912 0.29849374 0.01545533 0.00474449 0.42523025 -0.07707015 -0.62898837 0.29236933 -0.09155348 2.11393862 -0.99693301 -0.56379503 -0.72270143 -0.92975154 0.68750119 -1.48088055 -0.44057313 0.57178285 0.77013228 -0.20254735 -0.72233357 0.51349962 0.20439334 0.23933523 -0.83202572 -0.21983597 0.22855519 1.15927878 0.00029987 0.00031016 -0.07011538 -0.00039873 0.00000189 0.02603074 0.00054153 0.00036921 -0.06286565 0.00022414 0.00049520 0.04415944 -0.00051009 0.00032296 0.02873283 -0.00030746 -0.00010974 0.02612878 -0.00025689 0.00044518 -0.02710971 0.00040972 0.00042327 -0.05332744 -0.00011578 0.00009782 -0.00786341 -0.00045938 -0.00079612 0.02846421 0.00018033 0.00018577 -0.03468700 -0.00115743 -0.00015920 -0.00648268 0.00002598 -0.00065618 -0.05989609 0.00042048 0.00041854 -0.03492947 -0.00031249 -0.00021735 0.00041357 0.00002986 -0.00036300 0.00076206 0.00089700 0.00124418 -0.02311995 -0.00003186 -0.00003593 0.00133222 0.00011856 -0.00035480 0.04423748 -0.00035989 -0.00099959 -0.00963939 -0.00022319 -0.00029683 -0.00139696 0.00006982 -0.00048386 -0.00992582 0.00092393 0.00109102 -0.01201732 0.00002020 -0.00053292 -0.00817661 0.00026270 0.00097115 -0.05381732 0.00001585 -0.00068819 0.04011004 0.00046527 0.00031667 -0.06932511 -0.00034861 -0.00061920 -0.10254255 -0.00044802 -0.00000342 -0.04157469 -0.00035971 -0.00110799 0.01149485 -0.00007600 -0.00028903 0.03368786 0.00010394 -0.00053492 0.04800133 0.00007211 0.00026746 -0.08902084
-0.06881318 -0.16375366 -0.07887176 -0.47335374 0.84065859 0.81660866 0.27931187 0.70283381 0.46569738 -0.11310370 -0.01737624 -0.32290922 1.23973456 0.32074202 -0.59102875 -0.62808887 0.30540416 0.79282073 0.50801521 -0.25656587 0.15632426 0.24992562 -0.13909070 -0.08339609 -0.01569893 -0.44188973 -1.08152219 -0.47542981 -0.64021817 -0.55106123 1.01781814 -0.24191252 -1.07994157 0.23098062 -0.79013178 0.50106648 -0.82985548 0.16120262 0.82719626 0.85223481 0.08710638 -0.52691926 -0.01105973 -0.30496975 1.11391577 0.70307186 -0.21075187 -0.63046950 -0.41645741 -0.00942292 0.19557574 0.55799808 1.13269626 -1.01335633 -0.95921610 -0.19448955 0.37053322 0.15185089 0.23686162 1.33007411 -0.05986804 0.36444896 -0.35637189 0.28636548 -0.59273430 -0.22453672 -0.00828499 1.96306946 0.10907920 -0.17409549 0.02520785 -0.18395870 -0.29520255 -0.72381024 1.66802936 1.26485017 -0.63212611 0.35902423 -1.48614473 -0.54380524 1.10504147 0.44689526 0.00962117 -1.10272073 -0.28343570 -0.69742314 -1.58439924 -0.09750340 0.81380319 1.42884806 -0.11950398 -0.11804009 -0.68116253 -0.74470523 -0.35332239 -0.47972468 -0.52923149 0.10817819 -0.66748453 -0.05011419 0.08615651 -0.06289146 0.04007197 -0.06811000 0.04999814 -0.01423353 0.02412772 -0.01868459 0.03382130 -0.05945633 0.04315887 -0.03375908 0.05513153 -0.04112850 -0.02803138 0.04767705 -0.03502137 0.01308643 -0.02161220 0.01595697 0.03215936 -0.05361317 0.03988577 -0.02752401 0.04597516 -0.03287108 0.01051639 -0.01823692 0.01441763 0.00479104 -0.00876219 0.00618820 0.02726135 -0.04428736 0.03177227 0.00080078 -0.00243018 0.00139383 -0.00094366 0.00245451 -0.00036881 0.01585386 -0.02791242 0.01993405 -0.02405090 0.04078907 -0.02978127 -0.02986157 0.05094821 -0.03746420 0.02845505 -0.04836994 0.03565913 -0.04649601 0.08107514 -0.05874469 -0.00722501 0.01259058 -0.00897811 -0.01539770 0.02625095 -0.01812111 -0.02468166 0.04270459 -0.03068252 -0.00063796 0.00245138 -0.00247013 -0.00651614 0.00940621 -0.00763173 -0.00906259 0.01488751 -0.01173279 0.00877533 -0.01464793 0.01173769 0.01347990 -0.02384314 0.01721083 0.00201846 -0.00278917 0.00190634 0.01267001 -0.02208829 0.01684714 -0.04095746 0.06942982 -0.04973087 0.01736058 -0.02842083 0.02133866 -0.03122944 0.05460138 -0.03941314 0.00818984 -0.01555652 0.01091281
0.58807536 0.56978802 1.09527666 -0.73529402 0.15396072 -0.24825375 -0.13485708 -0.27425873 0.13249951 -0.31693026 -0.46358456 -0.42997111 -0.87149936 0.36987544 0.45970015 -0.89488203 0.15216956 0.50492699 -0.49093265 -0.48148430 0.09277400 0.63194015 0.13555906 0.35335992 -1.19837069 -0.11981185 -0.13477066 -0.45274815 0.59489168 -0.83971145 0.64183421 0.37059403 1.02360274 -0.30371033 0.33843184 1.16066394 0.38227804 0.24109213 -1.25368436 -2.13297001 0.38672195 -1.48010407 -0.43877101 -0.12140466 -0.65377975 -0.51963585 -0.27239633 -0.64981866 0.07187464 -1.84248547 -1.22359885 1.01639170 -0.58600779 0.39767035 -0.42593050 1.60324704 -0.77544564 0.94486052 -1.21972465 0.77932654 0.34501106 0.81469937 0.11125991 -0.07164359 -0.78540297 -0.84161304 0.53244428 0.76050877 0.55683641 0.52666658 -0.38695884 0.51877355 0.59837545 0.02218562 0.72822414 0.74985906 0.71266431 2.50496719 -0.25552280 0.55369669 0.12697260 0.11525121 -0.11247513 -1.08946881 0.04513980 -1.47910924 0.86422631 0.52780075 0.38387761 -0.16204420 0.68878903 0.60416739 -1.08149374 0.30806575 -0.11802213 -0.83330435 0.52904072 -0.50500459 0.28600151 -0.00428027 0.00722626 -0.04381617 -0.00592135 0.00844384 -0.05678797 -0.00401720 0.00551955 -0.03971316 -0.00465371 0.00701146 -0.04612580 -0.00540971 0.00763858 -0.04841938 0.00262881 -0.00283071 0.02046516 -0.00516928 0.00805076 -0.05290216 -0.00162293 0.00282431 -0.01969751 0.01295329 -0.01898620 0.12438700 -0.00014560 0.00092245 -0.00596265 0.00261987 -0.00336998 0.02463213 -0.00479980 0.00678558 -0.04425277 -0.00684055 0.00883978 -0.05577610 0.00337247 -0.00233064 0.01844373 0.01117436 -0.01862213 0.11949426 0.00130778 -0.00233114 0.01671143 0.00457007 -0.00711083 0.04598295 -0.00478859 0.00843964 -0.04481413 -0.00712542 0.00969767 -0.06873539 0.00215379 -0.00320491 0.02048913 -0.00339887 0.00568329 -0.03720859 0.00772429 -0.01203968 0.07847938 -0.00013319 0.00177602 -0.00819312 -0.00687492 0.00966323 -0.07121825 -0.00414021 0.00706473 -0.04281656 -0.00790365 0.01289482 -0.08869966 0.00051098 0.00058624 -0.00035842 -0.01333405 0.02026350 -0.13119599 -0.00705838 0.01194889 -0.08541998 -0.00392887 0.00683416 -0.04181671 -0.00295096 0.00293663 -0.02464356 -0.00118282 0.00157111 -0.01219699 -0.00050944 0.00117927 -0.00934716
0.15737169 -0.43071675 0.48178638 -0.41297238 -0.13695988 0.61299641 -0.45079963 0.00304701 -1.11477661 0.63552400 -0.51323364 0.18055198 0.01383003 1.65028027 0.89987148 0.83144001 -0.11343568 0.33873244 0.11832273 -0.28916042 0.81476989 0.11535756 0.04313270 0.00927416 -1.72650483 0.22020998 0.23717546 -0.84445001 0.74972526 1.15050602 0.72155114 -0.05708160 -0.93171118 0.64571861 -0.74663822 0.73153963 -0.13908874 0.05583589 -0.91145573 1.46454003 0.71318462 -0.11079432 0.99898597 -0.97252389 0.80298032 -0.37123301 -0.67137440 -1.60629061 0.05211998 -1.74365715 -1.43068349 -0.32970320 0.04737026 0.25472433 0.40855797 -0.48403924 1.21432034 -0.44067278 -0.96571116 0.09483074 -0.10318264 -0.15773368 -1.63187882 0.87951846 0.08123970 -0.54311113 -0.45030485 0.37427892 -0.50731117 0.27989638 -0.27659324 -0.05846609 -0.05274561 0.71031414 2.04626763 -0.29900952 0.52136805 0.05896008 -0.62513767 -0.01077461 0.50091864 -0.43220042 -0.07185890 0.49038171 -1.46872357 0.62512591 -2.17324129 -0.14264050 0.26284649 -1.08240136 0.75521940 -0.31072171 -0.04848885 -1.76911039 0.03989401 -0.35244396 1.98052578 1.85436098 1.58246692 -0.04516242 -0.03665752 0.05389205 -0.04462711 -0.03737772 0.05415529 -0.00677887 -0.00542929 0.00765667 -0.00070296 0.00015058 0.00057040 0.05976049 0.05010782 -0.07068873 -0.03108644 -0.02583060 0.03719785 -0.01156865 -0.00921873 0.01366939 -0.08500569 -0.06946639 0.10192580 0.01237096 0.01127350 -0.01504814 0.10142958 0.08208530 -0.12092646 -0.04211058 -0.03311574 0.04894932 0.02118382 0.01687500 -0.02486033 -0.02844833 -0.02281288 0.03422968 0.03793336 0.02910811 -0.04490510 0.00422996 0.00426150 -0.00548587 0.04267698 0.03473972 -0.05060619 -0.02984660 -0.02396856 0.03615825 0.03603427 0.02955777 -0.04283938 0.04453467 0.03594378 -0.05273210 0.03812630 0.03022164 -0.04578791 0.03149375 0.02499630 -0.03636689 0.05557116 0.04468326 -0.06496426 -0.04071198 -0.03199572 0.04807876 -0.02045675 -0.01570383 0.02368404 0.05292011 0.04204298 -0.06286180 -0.01282829 -0.00971472 0.01424781 -0.02745281 -0.02165005 0.03230796 -0.03558364 -0.02939697 0.04229556 -0.05236598 -0.04224045 0.06309524 -0.07527982 -0.06184372 0.08898739 -0.00821767 -0.00518799 0.00995026 0.05121317 0.04078650 -0.06041295 -0.01914034 -0.01518852 0.02100943
-0.07511238 0.22810008 -0.13115264 0.38352423 -0.56005579 -0.06642288 -0.48076952 0.50554984 0.03142232 1.08755455 -0.40284743 -1.19676341 -0.27021962 0.88868582 -0.17953332 0.18660434 -0.13204458 -0.15315252 0.27282234 -0.24433637 -0.44609396 -0.19229194 -0.01902890 -0.20308505 -0.72759131 -0.25319709 0.42418216 -0.27668838 -0.12989323 0.64584384 -1.62726623 -0.87287757 -0.92787149 -0.95679699 1.14463920 0.02186696 -1.50511939 0.67795411 1.17906179 1.92514487 -0.03162062 1.03531870 0.33935208 -0.46185793 0.32091833 -0.46066761 0.01270851 -0.31230630 1.07229798 -0.01673835 -0.36691360 -0.60228404 0.70257937 -1.35051956 -0.35976828 -0.15208795 1.83498631 0.70178692 -0.43352144 -0.91246521 0.21206114 -1.52324671 0.87095728 -0.56110081 0.27367707 0.49157554 -0.20623814 0.74000860 0.51593730 -0.13378780 -0.38101511 0.05303808 0.43652361 -0.94542126 -0.04796206 -0.40123236 -0.44091803 -0.82611112 0.15366018 0.28437672 -1.02984164 -0.10958149 0.73851677 2.06170896 0.13441209 1.16251542 -1.08433756 -0.06701555 -0.24854494 -0.37195633 1.39311338 -0.24274930 -0.59232754 -0.22398230 -0.20928095 1.38990960 0.93865641 0.34197203 -0.67791099 -0.00108103 -0.00064173 0.00305198 0.01765003 0.01345313 -0.08044083 -0.00342167 -0.00358228 0.01793890 -0.01609252 -0.01255390 0.07551988 0.03267276 0.02509191 -0.14739711 -0.01388539 -0.01059959 0.06285771 0.00671974 0.00497004 -0.02902977 -0.00545328 -0.00318700 0.02281025 0.00496403 0.00456008 -0.02309716 0.01643707 0.01323472 -0.07877016 -0.02171266 -0.01722279 0.10007161 0.00400214 0.00458648 -0.02498042 0.00409005 0.00311077 -0.02049005 0.00145486 0.00120120 -0.00559731 0.00392750 0.00331886 -0.02038753 -0.00169805 -0.00160658 0.00871765 0.00675655 0.00401585 -0.02697990 0.00017853 0.00017067 -0.00321331 0.00648729 0.00561962 -0.02908261 -0.00501408 -0.00489228 0.02660771 0.00664618 0.00512299 -0.03001346 -0.00308922 -0.00225124 0.01329997 -0.00362338 -0.00223614 0.01724685 -0.00936898 -0.00716942 0.04252298 0.00294140 0.00161215 -0.01200708 0.01003064 0.00830575 -0.04943078 0.00271527 0.00261072 -0.01054603 -0.00965584 -0.00832411 0.04477367 0.00098382 0.00045640 -0.00342577 -0.00482451 -0.00403770 0.02457816 0.00337001 0.00325869 -0.01741976 0.02674930 0.01944581 -0.12063949 -0.00057591 -0.00051429 -0.00181378
0.37268168 0.38465927 -0.30424535 -1.29741862 1.48704173 1.15205896 0.02380968 -1.21334636 0.10140744 0.50007955 -0.54721084 -0.91148862 -0.43894859 0.32617643 -0.31118620 -0.49109490 0.75033899 -0.31045111 0.10900242 -0.46685016 -0.36084181 0.59364598 -0.27347219 -0.61157297 -0.71941361 0.46886741 0.15445126 -0.78640112 -0.27378435 0.68778633 0.08910318 -0.97372023 -0.91076433 0.37989837 -0.68850795 -0.07708401 0.65968881 0.68025628 0.44281772 0.71350303 0.27387953 0.02168152 0.76689021 0.43586453 -0.97693173 -0.24744176 -0.61713051 -0.97455880 0.54055590 0.09213508 -0.50517921 0.17126638 1.33228481 0.63583000 -0.49388478 -2.26330666 1.74762273 -0.17820994 0.40860689 0.37812620 -0.22351889 -1.98423057 1.07390274 -0.30291126 -0.42214561 0.48277440 -0.73605822 0.27756760 0.91876873 -0.36896858 0.06495989 1.47185467 -0.30013983 0.31149229 0.45015145 0.92397192 0.24100583 0.27340898 -0.04242532 1.31581900 -2.18790111 0.68172829 -1.50580728 0.81293982 -0.77829143 0.96823636 -2.39835797 0.09382859 -0.10470111 -1.53512197 0.40096636 0.57591536 1.27229858 -0.22629976 -0.29019903 -0.93397355 0.61080625 1.22930556 1.23177719 -0.00341877 0.00585078 -0.02459754 -0.01467571 0.02127668 -0.08860308 0.00830642 -0.01266008 0.05213431 0.00727561 -0.01085503 0.04160800 0.00418883 -0.00655209 0.02513306 0.00241212 -0.00333126 0.01247548 -0.00200969 0.00291078 -0.01232286 0.00461379 -0.00588760 0.02511008 0.01911457 -0.02728283 0.11103095 0.01308706 -0.01927042 0.08386902 -0.00588702 0.00899756 -0.03474611 0.00146268 -0.00272236 0.01102235 0.00496722 -0.00736367 0.03241236 0.00081700 -0.00069770 0.00253437 0.01086858 -0.01681978 0.06871786 0.01655602 -0.02291548 0.09500291 -0.00342646 0.00461752 -0.02052020 0.00602243 -0.00718151 0.03248971 0.00684681 -0.01072994 0.04413639 0.00925151 -0.01330691 0.05807486 0.00333769 -0.00471462 0.01959635 0.01783438 -0.02770592 0.11178161 0.00010194 0.00126965 -0.00089232 -0.00576850 0.00738537 -0.03398064 -0.01480863 0.02161546 -0.08869231 0.00315562 -0.00554336 0.02249731 0.00704335 -0.00932425 0.03721260 -0.01669104 0.02435778 -0.10203068 0.00112594 0.00143370 0.00151733 -0.00925439 0.01326328 -0.05610278 0.01721047 -0.02540758 0.10465761 0.00749097 -0.01105855 0.04579594 -0.01442971 0.02291701 -0.08899362
0.22403018 0.31488943 1.28948500 -0.48906859 -0.51030825 0.51641482 0.44463426 -0.27195039 0.92222296 -0.82900641 -0.58169713 -0.48370288 -0.27705127 0.43524609 -0.81287585 -0.30342279 -0.45005693 0.05100312 -0.42502111 -0.23323423 0.17217703 0.25153700 0.13781472 -0.29084235 0.07138468 -0.20463701 0.58078478 -0.78916888 1.01665883 -0.93355255 -0.31594025 0.03617164 -0.82152084 1.28996765 -0.11310648 0.30172670 1.27451778 0.67277711 -0.58057205 -1.45362934 1.14226800 -0.44981372 -0.18121000 -0.59957900 -0.75120563 -1.14987375 -0.08279095 -0.54508576 -1.16442125 1.42867927 -0.74562212 0.25986694 -0.71929971 0.53377644 -0.30809347 -1.13023983 1.10581339 0.75901100 -0.19510749 -0.62274359 0.61269227 -0.95501507 0.82903328 0.40947657 -2.18908235 -0.41750358 0.05505110 -0.23166694 0.29390941 -0.81368834 0.55226062 -2.30755438 -0.26304717 0.27261541 1.35671411 0.16093922 -0.18171517 3.20543194 -0.33248402 1.43078918 -0.76993304 1.54277629 1.06355479 1.71047721 -0.06106244 -0.24896803 -0.92249868 0.91399914 0.21230942 -0.37508362 0.72509210 0.34155983 0.20635421 0.29049120 0.13381192 -0.52875971 -0.12927832 -0.29295130 -0.71645404 -0.01578877 0.03310192 -0.00849214 0.01201966 -0.02594092 0.00690807 -0.00146149 0.00518204 -0.00152440 0.01831401 -0.04035809 0.01055724 0.01175629 -0.02615510 0.00750314 -0.01160192 0.02438940 -0.00602193 -0.00151959 0.00433409 -0.00071474 0.00273611 -0.00591838 0.00168343 -0.07250803 0.15710971 -0.04121388 0.00909097 -0.01672608 0.00380475 -0.02501632 0.05401351 -0.01432060 -0.00234600 0.00348618 -0.00113611 -0.03773388 0.08078011 -0.02246117 -0.04602946 0.10026982 -0.02594101 -0.05204870 0.11124002 -0.02942352 -0.02388817 0.05165339 -0.01361491 -0.02178786 0.04673596 -0.01268282 -0.04057577 0.08986965 -0.02384056 -0.02874511 0.06245043 -0.01567112 -0.01541253 0.03266263 -0.00829587 -0.01034915 0.02281886 -0.00572429 -0.07334439 0.15709523 -0.04099044 -0.01584018 0.03786709 -0.01139635 -0.05619442 0.12333767 -0.03254345 0.02205344 -0.04731050 0.01300357 0.03252752 -0.07178576 0.01918113 -0.02135446 0.04619855 -0.01234252 0.03151331 -0.06752199 0.01817483 0.00037002 -0.00169404 0.00025915 -0.01598018 0.03513366 -0.00917114 -0.02667725 0.05655784 -0.01554559 0.02611789 -0.05422479 0.01441155 0.03119741 -0.06887883 0.01777387
0.69457386 1.35691488 0.30643895 -0.78779013 0.20829367 0.66993351 -0.10723488 -0.97918570 0.60929838 -0.05508278 -0.75027117 -0.18361280 -0.43612678 -0.83771194 0.08526816 -1.34353669 0.47319440 0.44356960 -0.51615109 0.15624794 -1.29777294 0.73205211 -0.02075365 0.01596299 -1.47283773 0.40833706 -1.45964595 -0.94538342 0.66714946 -0.40678524 -0.54219001 0.06307316 0.38522540 -1.20233370 1.62967759 -1.06584217 -0.03769867 -0.44933543 0.86944781 -0.16351805 -0.10198702 0.39864247 -0.77490321 1.27987996 -1.43968422 0.11197699 -0.18611334 0.33341061 0.69038587 0.53316695 -0.08598466 1.49724224 -1.20919123 -1.06647726 0.56593579 0.30171408 0.10398550 0.33617677 -2.04005916 -0.44688718 -0.06294534 0.97551325 -0.60132640 0.81584825 -0.37570979 -1.19215048 0.72722447 0.42630597 0.65137181 -0.88357302 1.27431986 0.44909911 0.69686098 -0.49667361 0.98572970 0.58438657 0.43053373 1.65850068 0.89998075 -0.70026982 1.70526456 -0.39431230 -0.35781554 -0.57755856 -0.02055138 -1.48496886 1.32483342 -0.14211402 0.09833377 0.23869404 -0.44918573 0.20216654 -1.12863870 0.64596581 0.31587995 1.43693899 1.33885846 -0.81065596 -1.71924915 -0.00141630 0.00279458 0.00264283 -0.01261041 0.02308920 0.02599176 0.00854524 -0.01479212 -0.01724572 -0.02775388 0.04959717 0.05439223 0.00238052 -0.00533163 -0.00660601 -0.02875282 0.05022281 0.05499455 -0.00946304 0.01582683 0.01742991 -0.01938105 0.03633783 0.03854554 -0.01461140 0.02456317 0.02729690 -0.02585724 0.04594448 0.04880262 0.00196065 -0.00318064 -0.00452099 0.02617237 -0.04403375 -0.04812486 -0.00735226 0.01521440 0.01524711 -0.00443508 0.00849920 0.00783333 -0.03701042 0.06551011 0.06947892 0.00218970 -0.00616374 -0.00582063 -0.04702436 0.08244568 0.08887831 0.02134825 -0.03659681 -0.04086329 -0.01365329 0.02108397 0.02579882 -0.00329668 0.00692427 0.00537143 0.00605641 -0.01103411 -0.01092918 -0.03188538 0.05552404 0.05925597 -0.02141062 0.03975631 0.04283420 -0.01133804 0.01982444 0.02034120 0.03237885 -0.05601026 -0.06124713 -0.00824871 0.01593339 0.01636122 -0.00272106 0.00461443 0.00525306 -0.00250676 0.00343358 0.00312422 -0.00108699 -0.00000851 0.00360835 -0.02404624 0.04046048 0.04337373 0.00148227 -0.00007477 -0.00001143 -0.02877856 0.04982372 0.05225501 0.00380836 -0.00558468 -0.00319785
1.19597922 -0.20963676 -0.32794930 -0.99129678 -0.17239450 -0.32433163 -0.29733247 0.95503770 0.42084909 -0.84305290 -0.42052677 0.64760303 -0.43316160 -0.04739764 0.01482778 0.75721736 0.83922890 0.21439326 0.34363702 -0.11385006 0.47963968 0.22956361 -0.03456249 -0.32887694 -0.88802496 0.22153965 -0.29559222 -2.07547667 0.91137491 1.40388591 -0.99074882 -0.13278679 -0.01100757 2.15820528 -0.07441974 -0.00156708 -0.08562627 -0.28552109 -0.33426759 0.09229173 0.11419501 0.46308016 -0.62997417 0.28044224 0.80588996 0.93945173 0.01913697 0.12868291 -0.22388058 1.98009001 -0.69950430 0.14814369 -0.47069737 0.71545736 -0.36051819 -1.28114749 0.13781253 -0.08192645 -0.12694540 -0.94813031 -0.61296503 0.63894865 0.85107018 -0.79294341 0.74303205 -0.80612079 0.20946309 -0.95943251 0.24491493 -0.13487096 0.19571804 -0.49457738 0.32820752 -0.34802769 0.23134279 0.73947547 0.16619958 -1.32907081 -0.22043861 0.40134458 -0.50121015 0.78674377 -1.92022851 0.24023362 0.61099089 0.12615124 2.29524980 0.25657826 0.20495196 0.26360715 -0.78967858 -0.74722738 -0.44312786 -0.13857063 -0.09393268 -0.08567991 1.79453841 -0.35865663 -2.62752632 0.00229994 0.00057130 -0.00695578 0.00982036 0.00809570 -0.04449373 -0.00662578 -0.00370909 0.02460929 -0.00541055 -0.00300942 0.01929434 0.00197398 0.00081173 -0.00466140 -0.02058951 -0.01330706 0.07841847 0.00821741 0.00500522 -0.03205936 0.00523126 0.00334313 -0.02192950 0.00757723 0.00456175 -0.02665228 -0.01737744 -0.01119032 0.06884388 -0.00220115 -0.00175499 0.00884243 0.01529202 0.00967132 -0.06102135 -0.00617986 -0.00406100 0.02256821 0.01753681 0.01240909 -0.07076434 0.00844906 0.00588911 -0.03323415 -0.01523260 -0.01055290 0.06122173 0.00255059 0.00259183 -0.00997684 0.00126068 0.00101300 -0.00543829 -0.00120936 -0.00199833 0.00475222 -0.00667964 -0.00439459 0.02472797 -0.00328342 -0.00105071 0.00983280 -0.01160524 -0.00842749 0.04413564 -0.00228177 -0.00150164 0.00817945 -0.00046931 -0.00009211 0.00099632 0.01691357 0.01104322 -0.06661177 -0.00589184 -0.00439338 0.02675475 -0.00559998 -0.00486916 0.02550576 0.00543992 0.00403846 -0.02299515 0.00526489 0.00239133 -0.01726608 0.00252268 0.00192805 -0.01065041 -0.03369213 -0.02280300 0.13261800 0.00175818 0.00141635 -0.00703592 0.01427038 0.00824552 -0.04962030
1.07069363 1.06964565 0.26301643 -0.64020081 -0.20102949 1.24553253 0.89171159 -0.48926202 0.07550611 0.49802930 -0.79758430 -1.08142176 -0.00354559 -0.08242191 -1.16975011 0.34855790 -0.90079339 -1.06017906 1.29170987 0.50318204 1.03514126 -0.96624851 0.64877673 0.27443541 1.44102354 -0.70002245 0.49464926 -1.39675165 0.21164822 1.03023774 0.25694406 -0.16450125 0.58565510 0.27617651 1.19746317 -0.18617809 -0.46617083 0.44776546 0.15144624 1.90037300 0.94398783 1.13911099 -0.89764733 -0.23696494 0.15187359 -0.37905373 -0.52694270 -0.39226041 0.14964171 0.47688329 0.25326875 0.29063916 -0.66629786 1.05676629 -1.37484426 -0.74598753 0.01082120 0.43548365 -0.34711969 -1.75085475 -0.41053038 -1.65931967 1.03015251 0.55310766 0.21470347 0.32448570 0.21833093 -1.04892098 0.76232081 0.42538525 -0.53188027 0.10342986 -0.02384012 -0.24216840 0.68878430 -0.09776897 0.70809076 -2.12889932 -0.74153482 0.76689487 -0.66015846 -0.99925587 0.28678892 -0.79653817 -1.83142534 1.80894726 0.83936817 0.04716085 -1.21242530 0.49976240 -0.11282787 1.12751010 -0.62383446 0.54633368 0.40653254 0.09770721 -0.29965622 -0.26517817 -2.26339731 -0.00061530 0.00305618 -0.00109942 -0.00834859 0.02646123 -0.01057736 0.00700466 -0.02385643 0.00937329 -0.00277476 0.00961425 -0.00328544 -0.02704922 0.08270613 -0.03372944 -0.00152763 0.00746048 -0.00282509 0.01644420 -0.05441363 0.02247937 0.03784881 -0.11827387 0.04788217 0.00836995 -0.02896395 0.01164773 0.02758873 -0.08709836 0.03566927 0.01535183 -0.05009580 0.02055698 -0.00992673 0.03307082 -0.01362811 -0.02017177 0.06633100 -0.02593443 0.00868239 -0.02589180 0.01091540 0.00341093 -0.00808715 0.00415991 0.01879824 -0.06263898 0.02520665 0.03781960 -0.12513206 0.05183755 0.01970237 -0.06551661 0.02724180 -0.00055839 0.00069025 -0.00133612 -0.03080847 0.10106751 -0.04006679 0.00534597 -0.01631936 0.00614916 0.01370073 -0.04240642 0.01619817 -0.01024304 0.03005094 -0.01152914 -0.01713479 0.05641356 -0.02323672 -0.01946669 0.06070756 -0.02475899 0.01627350 -0.05174757 0.02167616 0.01566175 -0.05305282 0.02134238 -0.00630777 0.02129862 -0.00821805 -0.00362784 0.00796998 -0.00317176 0.02828622 -0.09263000 0.03834352 -0.00024407 0.00266407 -0.00078999 0.01358090 -0.04440579 0.01857310 -0.01190105 0.03431892 -0.01282106
-0.33608076 -0.35971745 0.04697917 -0.50137248 -0.00475816 -0.58347283 -0.30111790 0.11893466 -0.56432925 -0.08046665 1.53725050 -0.49443399 0.70449462 -0.10222970 0.94460337 0.44762618 0.19487606 0.42736364 -0.72417158 -0.47720738 -0.18844536 0.00194848 0.28099763 0.27481385 2.10932311 0.06237617 -0.59144178 0.68284753 -0.50761502 -0.32276501 0.87635014 0.09858469 -1.08198076 0.44226900 -0.34744245 -0.31675685 0.06404946 -0.09383141 -0.03286887 -1.37207758 0.09870609 -0.96460424 -2.55593278 0.34614863 -0.25658148 0.14004838 -0.18002916 0.10739693 -0.06337226 -0.63203423 -0.14885804 -1.87514972 -0.27496758 0.10406649 1.22438189 0.73633282 -0.10950928 -1.12218670 0.49013155 0.62865303 1.00713689 2.89514143 -1.19051962 0.52744954 -0.68398747 0.09200235 0.82525800 -0.10531083 0.62657120 -0.24084463 0.05095462 1.34314079 -0.12120835 -1.09302690 0.07073588 0.78342238 -0.05177729 0.42790637 0.38903646 -1.09238691 1.76396277 -0.15406925 -0.08023821 -0.93492292 0.63340529 -1.73565946 1.48294079 -1.12240118 0.30420827 1.50373020 0.26857409 0.17808273 -1.61002181 -0.15335169 0.44404262 0.01245810 -0.40381793 -0.01454885 -0.46581283 -0.00042771 -0.00029719 0.00593462 0.00204394 0.00298645 -0.03789534 -0.00092014 -0.00185579 0.02548644 -0.00029341 -0.00036689 -0.00693599 0.00530568 0.00438255 -0.07546861 -0.00373234 -0.00482486 0.06943505 0.00432810 0.00630947 -0.08005465 -0.00269003 -0.00296402 0.04587554 -0.00618482 -0.00553038 0.09540581 0.00691038 0.00645122 -0.08413872 -0.00612530 -0.00801032 0.11320389 -0.00020978 -0.00164145 0.02283190 -0.00178038 -0.00176536 0.03468404 -0.00203311 -0.00135462 0.01682381 0.00753423 0.00704500 -0.10108522 -0.00447838 -0.00575279 0.07992195 -0.00100541 -0.00098264 0.01711700 -0.00564424 -0.00416139 0.07826231 0.00070913 0.00233571 -0.01389045 -0.00197553 -0.00271684 0.03106015 0.00350703 0.00297336 -0.03793713 -0.00225106 -0.00323957 0.04553370 0.00252965 0.00441613 -0.05274482 -0.00615839 -0.00696505 0.10749535 -0.00092174 0.00041083 0.00088685 0.00025400 -0.00056670 0.01429156 -0.00102509 -0.00208743 0.03282730 0.00651204 0.00556512 -0.09150416 -0.00506866 -0.00293520 0.05420406 0.00562761 0.00584009 -0.09060188 0.00280445 0.00293824 -0.03918328 0.00267492 0.00196623 -0.02894401 -0.00202899 -0.00109585 0.03185768