-0.02072128 0.02983663 -0.05349008 3.50085721 0.01220635 -0.01988038 0.03084733 3.58539692 -0.04502894 3.53394872 3.50913291 -0.01128776 -0.01052024 0.03514509 3.50841879 3.51790839 -0.01681216 3.50451519 -0.04536020 3.52774198 3.55163191 3.53358390 3.53607119 3.48131958 -0.04678108 1.78560448 1.78891561 3.50630771 1.77035381 1.82606190 0.00777042 5.37838637 1.79526281 3.51259239 5.26593102 1.82052157 0.03566900 1.82259672 5.35215132 3.54618136 1.75741522 5.39353819 -0.01943087 5.34502688 5.38089957 3.54838033 5.35145221 5.39963948 1.74087280 -0.04608595 1.78827245 5.32887173 0.00280571 1.82255812 1.79631366 3.60343395 1.79825961 5.30836674 3.56466262 1.84135485 1.77765011 -0.01794745 5.35202412 5.37263526 -0.02460023 5.38825861 1.74496219 3.54277112 5.33058153 5.28864195 3.59298654 5.36352890 1.77415492 1.77314846 -0.05338638 5.29358618 1.77375383 -0.07874057 1.71766531 5.32751562 -0.02244158 5.33790341 5.32436174 -0.06337604 1.73853699 1.80195250 3.54418156 5.35170326 1.78914469 3.54641448 1.75087446 5.36007594 3.49431254 5.35610368 5.30847559 3.47361387 0.21287477 0.13737843 0.07852561 3.73850324 0.04533330 0.18256840 0.23503070 3.71212463 0.11940624 3.77513660 3.55517595 0.16389573 -0.22743610 0.10481849 3.29888388 3.33946873 -0.11278480 3.30043839 -0.24881348 3.46300960 3.32949610 3.37375876 3.42275389 3.26704778 0.14985815 1.85031870 1.98863641 3.70730967 1.80753520 2.02384838 0.17997888 5.45120037 2.04613783 3.71732456 5.29997636 2.01932631 -0.16896792 1.78488020 5.13391800 3.29695262 1.80458072 5.21729800 -0.22929457 5.30551218 5.15978646 3.38220819 5.26603963 5.16877581 1.97394510 -0.00663246 1.99897293 5.55384198 0.00698482 2.01402955 2.07028842 3.68202347 1.93250667 5.44235070 3.69632230 2.06144981 1.57627628 -0.06233517 5.15241899 5.12179197 -0.09684505 5.21998211 1.58108490 3.56464407 5.09704221 5.08906168 3.59474165 5.12647701 1.97473746 1.79932985 0.17735483 5.42583324 1.82073567 0.20482831 1.97526808 5.32760633 0.09998679 5.54174900 5.36371093 0.14921098 1.53465523 1.85026307 3.34307303 5.12772624 1.80675918 3.34359385 1.59350952 5.21116450 3.26224019 5.11809258 5.28134863 3.26716733
-0.01907481 -0.05070925 0.00340364 3.56093793 -0.04483169 -0.02709256 0.01934328 3.55422924 -0.00944587 3.55978516 3.50492184 -0.02371645 -0.03638143 0.01117402 3.46247518 3.52604771 -0.04743999 3.54654864 -0.01423632 3.52688350 3.46502161 3.51842551 3.50699396 3.49655080 -0.01846646 1.71754345 1.83151480 3.56028725 1.81584022 1.80604037 -0.04530005 5.28927900 1.74314300 3.52217282 5.35940466 1.78611768 0.03821029 1.86668591 5.30839616 3.51432813 1.80842826 5.33796957 -0.01421265 5.33657081 5.36445407 3.53503611 5.27152515 5.32983097 1.78462209 0.03659395 1.82740658 5.28057679 -0.01342175 1.78182375 1.79090436 3.59248108 1.79978593 5.29858165 3.54054607 1.85240680 1.78531547 -0.01368796 5.35624233 5.30838840 0.00382028 5.30145542 1.82469058 3.61097704 5.32270096 5.38893084 3.55787252 5.35803427 1.78273544 1.76968620 -0.03718048 5.37805234 1.77451214 -0.02642580 1.77404711 5.27454829 -0.06903995 5.35213618 5.31159341 -0.04497495 1.81278131 1.78198434 3.50655839 5.27694476 1.77847126 3.53500748 1.78394398 5.38711804 3.50711102 5.30059628 5.33204614 3.51993823 0.20753315 0.06418665 -0.18155563 3.80292231 0.08486240 -0.16890447 0.26365870 3.74019545 -0.08354119 3.78255866 3.60521455 -0.21984816 -0.24399167 -0.16285782 3.62316236 3.26929916 -0.15543323 3.60248299 -0.24266285 3.35368613 3.59989475 3.33960437 3.28703464 3.62617676 0.20937292 1.88145972 1.76944444 3.75632154 2.00736193 1.64950286 0.22899043 5.32483698 1.66509077 3.81917084 5.42782885 1.75025591 -0.17814827 1.79678105 5.50032369 3.26303079 1.65312652 5.41989714 -0.26773448 5.16212624 5.40140429 3.28426264 5.11271780 5.39985377 2.02981970 0.13528571 1.72943597 5.53359524 0.07235842 1.66903004 2.01440125 3.80122951 1.73843887 5.53129169 3.70228091 1.75837034 1.53728344 -0.15203735 5.45838984 5.08236550 -0.10622074 5.45472308 1.59583546 3.53277285 5.51359000 5.12073786 3.42756168 5.37529514 1.96315521 1.97204911 -0.14704916 5.59772152 1.86832178 -0.21975476 1.97980927 5.49638292 -0.14302196 5.61107971 5.42493141 -0.07301139 1.55554751 1.63663945 3.54354488 5.02163617 1.66531688 3.63278084 1.57900503 5.30809293 3.71906804 5.00570717 5.25351079 3.58113337
-0.02495084 0.03519012 -0.03509953 3.57435767 -0.02925970 -0.08974179 0.01122201 3.50371927 -0.04310719 3.53516154 3.55764099 0.01628161 0.06019179 -0.05015235 3.53312025 3.53646018 -0.02930852 3.54441742 0.01957974 3.49498639 3.52819031 3.58047674 3.50381778 3.50180358 -0.01082620 1.77824871 1.82213215 3.58058844 1.78519173 1.75930140 -0.00345030 5.27843394 1.80771219 3.57792425 5.32642387 1.79005287 0.03403458 1.74283474 5.39732988 3.57054726 1.74350850 5.38758045 -0.02468234 5.31202880 5.40541278 3.52920572 5.26603718 5.38570861 1.77496467 0.04541862 1.83856140 5.34793929 -0.01238611 1.81467095 1.75056166 3.55736967 1.79740420 5.31320115 3.59947543 1.82432730 1.75693251 -0.01848297 5.31649747 5.31951947 0.01689717 5.36530648 1.70840814 3.62289578 5.35103331 5.34103721 3.53815859 5.36707436 1.75688185 1.78221970 0.03236758 5.33662113 1.72962671 -0.03592480 1.77221333 5.36772270 -0.04637879 5.31861629 5.34676107 -0.03510542 1.75292027 1.74852785 3.49732344 5.32304494 1.72649270 3.51258977 1.78364897 5.35466272 3.52839656 5.33722196 5.32555956 3.54415882 -0.01589563 -0.03527783 -0.31743216 3.48555540 -0.15720819 -0.34470688 0.04906402 3.46324954 -0.35203303 3.56211640 3.49179593 -0.28120414 0.09936501 -0.02561609 3.83216327 3.53238558 0.05546824 3.83129317 0.07563606 3.65263659 3.77312259 3.58769333 3.68942882 3.74818676 -0.04583215 1.67383657 1.56249377 3.51306308 1.70437675 1.48772003 0.00141790 5.19836930 1.52014014 3.61001093 5.22381613 1.51929570 0.06568466 1.80882012 5.68612146 3.63277016 1.88020445 5.65710928 -0.05905298 5.40517462 5.69117116 3.53391147 5.34055983 5.67010363 1.77385231 -0.03313057 1.56021845 5.35468912 -0.07126585 1.50862405 1.85048764 3.53716389 1.53434118 5.29910489 3.47048704 1.57003909 1.83613800 0.09026478 5.57060843 5.36738561 0.05904366 5.65069719 1.72472497 3.69221718 5.65910791 5.33534839 3.59082377 5.65884334 1.78844173 1.68793311 -0.25023470 5.34118967 1.65619493 -0.31284267 1.85446155 5.30521409 -0.33246481 5.33131691 5.37731962 -0.32897283 1.85850627 1.81556122 3.75433682 5.32086956 1.86341581 3.76316656 1.78343595 5.50940835 3.77736870 5.34985057 5.50380244 3.80731587
-0.00057731 0.05085361 0.01450003 3.53733576 0.02063051 -0.02749943 -0.02891508 3.54174365 -0.01789551 3.55843347 3.56254089 0.04290900 -0.00142803 -0.00629599 3.54483496 3.50751036 -0.05528059 3.48895330 -0.01494175 3.49596926 3.51635848 3.55693083 3.57817656 3.50374617 0.06095274 1.74572817 1.82516868 3.54282119 1.77259134 1.84852351 0.03154579 5.35388521 1.80250225 3.52097493 5.31601961 1.84232369 0.00851646 1.73032112 5.32738456 3.55096930 1.80300557 5.29695843 -0.02190646 5.36703636 5.32663684 3.56832382 5.32270548 5.41014363 1.80418031 0.05241789 1.82217263 5.29904458 -0.00160812 1.79371421 1.78917999 3.54776564 1.77697528 5.34215847 3.55103335 1.79775533 1.73404946 0.03559370 5.36691152 5.31550147 0.03192007 5.33992454 1.78035347 3.51388053 5.35135683 5.32955765 3.47007573 5.37291447 1.75022677 1.78141549 -0.02396454 5.32288105 1.76930232 -0.06140682 1.80854097 5.32755808 -0.07709586 5.32478129 5.32466869 -0.09711796 1.74503661 1.75962355 3.47029039 5.31067743 1.78086687 3.49169641 1.80897443 5.33348794 3.49589012 5.31707734 5.35345128 3.49961378 0.16085105 -0.06174516 -0.19450181 3.65093809 -0.05877514 -0.29246290 -0.02973153 3.41582990 -0.29163075 3.63399812 3.36704042 -0.16910695 -0.17713914 0.16349557 3.71387755 3.34155837 0.07838612 3.71718758 -0.06382472 3.63505849 3.78915426 3.44221931 3.73534108 3.74874845 0.16868021 1.57548678 1.58631909 3.61744133 1.69043569 1.58822480 0.11666286 5.20748898 1.57056522 3.65152361 5.15039388 1.60796686 -0.15062240 1.81922680 5.56287017 3.50756707 2.02296021 5.47380851 -0.11315904 5.53197997 5.58077936 3.45269661 5.47377808 5.65072053 1.96165532 -0.12778565 1.62277482 5.37075835 -0.15727029 1.55663789 1.90022198 3.35398002 1.55572384 5.41267101 3.36191488 1.58921604 1.65388918 0.19729160 5.58911298 5.21732486 0.19063182 5.58666910 1.64333186 3.64654878 5.59817927 5.24243253 3.57166733 5.63505537 1.77985635 1.59939376 -0.27250211 5.39831079 1.69085643 -0.34400786 1.91925677 5.15992950 -0.28609189 5.38909619 5.17194270 -0.32702121 1.74981218 1.95393981 3.70485669 5.23702310 1.98815542 3.72023372 1.71391654 5.52711875 3.68827159 5.20855190 5.50244141 3.72513845
0.02440290 -0.00463705 -0.04011878 3.54080143 -0.02144408 0.01897946 0.03234839 3.52478080 -0.06731774 3.58179542 3.53660381 -0.01611607 -0.02144826 0.03975164 3.54520727 3.59522296 -0.03390690 3.55200813 0.03315674 3.53999120 3.49156352 3.56903694 3.57621303 3.48950161 0.00698013 1.77352651 1.81668370 3.47907352 1.78213307 1.81902782 -0.00796043 5.31732353 1.79071291 3.55035884 5.36281966 1.80850405 -0.03077401 1.75611341 5.41770445 3.55730295 1.77985312 5.35591128 -0.01831826 5.33183555 5.38067474 3.58106046 5.37281441 5.30933278 1.77514878 -0.05722495 1.82081935 5.36799378 0.02983364 1.79038075 1.76930311 3.53459734 1.78425896 5.34524621 3.55927890 1.79949965 1.80003712 -0.02756435 5.29313528 5.27102214 -0.00005543 5.32466396 1.80934440 3.54289132 5.38127902 5.32061642 3.54243187 5.30931666 1.78388931 1.76670434 -0.06984819 5.32643035 1.75605806 -0.06314827 1.80822617 5.29217385 -0.04151956 5.29121810 5.30538023 0.01361206 1.79095262 1.76387429 3.53460540 5.33232704 1.78221552 3.49592390 1.78070352 5.33577231 3.54987577 5.33953367 5.32211527 3.45903692 -0.06035626 0.13737551 0.22231721 3.51186271 0.04182321 0.29906170 -0.16026931 3.57298008 0.16576229 3.42327277 3.62299319 0.23307741 0.12365976 -0.01997358 3.30109542 3.71207277 -0.03943531 3.28425920 0.10920389 3.44934329 3.21038170 3.69097062 3.59071167 3.22646023 -0.14838843 1.72421633 2.07412194 3.44422776 1.81832563 2.10737063 -0.14755591 5.42003259 2.03706734 3.48419582 5.46808886 2.07095599 0.10968543 1.68135437 5.17480796 3.74950797 1.72271292 5.14120281 0.15158297 5.30100572 5.12948354 3.71872406 5.33364461 5.03259547 1.62449906 0.00489036 2.08548430 5.14097496 0.10274706 1.96631640 1.63491619 3.58426150 2.05526620 5.12677594 3.62165035 1.99573881 2.03612401 -0.06796771 5.08911832 5.45200283 -0.06769429 5.07443653 1.91251845 3.39803747 5.13089728 5.46566305 3.44346670 5.04856553 1.66997166 1.85015715 0.21142424 5.26189095 1.88767153 0.20262324 1.63997784 5.27323093 0.22069649 5.15197395 5.37560669 0.28117719 1.96855460 1.66228771 3.29515563 5.48972049 1.69889197 3.23933149 1.93116980 5.32279267 3.30448937 5.39495746 5.32776601 3.17992289
-0.02440095 0.02434300 -0.02412657 3.55216676 -0.01991606 -0.02948800 0.01658726 3.50999637 -0.03152832 3.55411784 3.54442591 -0.01294445 -0.04179738 -0.01918059 3.52439399 3.54315608 0.01388929 3.51339585 0.01356641 3.57249784 3.56527690 3.56155594 3.55504403 3.60578703 -0.00797611 1.77228709 1.83575482 3.54486393 1.75600486 1.78351844 -0.01486348 5.26814889 1.77477628 3.53820861 5.30216257 1.78646746 0.00765401 1.81118247 5.38268878 3.51643515 1.80734247 5.37069722 -0.02260234 5.30190704 5.30334157 3.53802764 5.33583255 5.41020133 1.80461655 -0.07601540 1.87336047 5.30691343 0.01029876 1.81480626 1.79958450 3.52510272 1.80383761 5.28190495 3.58421648 1.75376515 1.76825812 -0.02925814 5.34986395 5.31298428 -0.00265160 5.30982503 1.80617466 3.55321486 5.37758878 5.31421629 3.55138218 5.39298935 1.81773012 1.85271514 -0.06098510 5.28350758 1.78036104 -0.05900437 1.79474873 5.35091967 -0.05592654 5.35746125 5.34017575 -0.05925911 1.75594509 1.75348107 3.52565816 5.28202346 1.75609652 3.55894358 1.74927039 5.34280884 3.52758255 5.30879006 5.33185402 3.56067689 0.01637498 -0.07273415 -0.30280207 3.48560722 -0.02201100 -0.30844890 0.08669333 3.53559513 -0.32027431 3.59964827 3.45897720 -0.29421225 -0.11391965 0.06541151 3.79280609 3.47011552 -0.05281999 3.78728477 0.06493346 3.46414645 3.84025032 3.56601843 3.56529213 3.90969892 0.08813465 1.77943939 1.55080044 3.53780492 1.74866956 1.48309623 -0.09185709 5.21459350 1.47273016 3.56605000 5.33301782 1.49429281 0.05988243 1.87310130 5.66414848 3.54723330 1.76966692 5.67219615 0.04949970 5.29447427 5.59396513 3.50093257 5.22891223 5.69410812 1.79716804 -0.06053676 1.58292649 5.29977494 0.00523784 1.51707184 1.82878609 3.55879092 1.52101077 5.31166628 3.51041867 1.46982861 1.85883408 -0.11053628 5.62353033 5.27577318 -0.07824064 5.58656633 1.87360317 3.49387057 5.67165228 5.25651337 3.51837352 5.69009829 1.85727182 1.76001255 -0.34081954 5.21415141 1.79349509 -0.36139219 1.79084844 5.30092705 -0.34221170 5.42475822 5.29297217 -0.33685053 1.70625347 1.67577179 3.80902349 5.35716597 1.73835789 3.83988227 1.64830689 5.32238076 3.81644443 5.35594413 5.28821244 3.86656191
-0.00022229 0.03323408 -0.02136314 3.57194250 0.01667906 -0.01469931 0.03241086 3.63921979 -0.04070442 3.48727457 3.54294906 -0.04345589 0.01035238 -0.00030081 3.48673932 3.55170436 0.01097761 3.52421772 0.03565570 3.52851446 3.53745382 3.54409796 3.56515964 3.51802329 -0.04794158 1.75977989 1.81622756 3.53659485 1.80616787 1.76283465 -0.05712540 5.36965849 1.78148052 3.56654830 5.28074624 1.77078565 -0.05326137 1.77473338 5.36317511 3.58834173 1.73373187 5.38184363 0.02504389 5.34090721 5.35312438 3.55532858 5.31011429 5.34893791 1.70759043 -0.02692043 1.80059882 5.27963548 0.00259392 1.74701749 1.76947478 3.55095895 1.79867365 5.30295456 3.53567160 1.86288298 1.78238855 0.03004527 5.40141604 5.31211346 0.01755159 5.33732742 1.72982681 3.56439517 5.36388993 5.33836336 3.57606205 5.31120844 1.75656300 1.78234654 -0.06644212 5.25241144 1.80434672 -0.00063227 1.78744929 5.28088703 -0.01971052 5.34604463 5.32776404 -0.07590589 1.80265326 1.80698854 3.49677246 5.31036820 1.76407699 3.50720956 1.75660252 5.34959529 3.51713748 5.34817720 5.32719742 3.50616242 -0.10974841 0.32504829 0.02434898 3.53040047 0.24358396 0.20300364 -0.01736240 3.84641276 0.15389208 3.39344460 3.78064772 0.10353277 0.13177879 -0.23233047 3.37264169 3.54819875 -0.20708840 3.31853507 0.20846991 3.35356646 3.36791625 3.71701189 3.37744746 3.36722498 -0.10228175 2.04814293 1.88418457 3.49963557 2.07462388 1.84454679 -0.20701885 5.57017797 1.93512010 3.39979768 5.50278042 1.90420978 0.11237144 1.54314359 5.31126570 3.66225107 1.49058656 5.22994556 0.19244759 5.11160098 5.22295198 3.65204071 5.07244058 5.20133472 1.64020711 0.24420220 1.93336988 5.20591432 0.25684803 1.89978399 1.62173544 3.75218136 1.93664879 5.21459170 3.76881465 2.02714612 1.85377412 -0.22323390 5.29359734 5.29621326 -0.24202461 5.21613006 1.90253894 3.34283277 5.21479919 5.45470134 3.31958570 5.18607001 1.59787588 2.01803607 0.02817930 5.18149073 2.06347383 0.16023179 1.70058761 5.52985994 0.10478631 5.22521235 5.56554876 0.06756365 1.85489369 1.55803139 3.36723488 5.30645897 1.53473902 3.29440221 1.84554367 5.09052700 3.43580633 5.51330660 5.10558265 3.43702400
0.02638681 -0.03318645 -0.03414542 3.55695249 0.01410144 -0.00180195 0.01027986 3.54563268 -0.09324488 3.57830477 3.60192784 -0.10539593 0.01517486 -0.00055882 3.52901301 3.56486974 -0.01548298 3.46133613 -0.01128372 3.53770618 3.46877547 3.51553847 3.54380714 3.57865774 0.00418357 1.80893249 1.84568150 3.52052761 1.80950421 1.80469052 -0.01344944 5.27771064 1.82929777 3.54396129 5.33036666 1.80536225 -0.02978169 1.80335265 5.36508490 3.59652525 1.71891055 5.37340862 0.03123349 5.30137319 5.38353469 3.54451120 5.34370027 5.35851016 1.78490150 0.04475175 1.80454085 5.29445839 0.01011966 1.83032420 1.80974054 3.56482794 1.79474498 5.39742184 3.60081043 1.83336069 1.77800417 -0.04346777 5.40333627 5.34574695 -0.02388414 5.36695070 1.79760783 3.49742991 5.39998694 5.32576482 3.53436029 5.37813222 1.78915877 1.79467056 -0.00029201 5.31788656 1.76926256 -0.02258249 1.72512613 5.34523106 0.00637138 5.33787043 5.23669205 -0.05521165 1.77914326 1.74264601 3.54948943 5.31562708 1.78152427 3.51820167 1.76285464 5.32078830 3.49100531 5.32900676 5.33584029 3.48918852 0.13083324 -0.23502514 0.16506536 3.77727665 -0.13592080 0.15142228 0.21229346 3.42997085 0.10083896 3.62779871 3.42492811 0.11955627 -0.21472514 0.11725929 3.40421077 3.42533711 0.19696560 3.32954289 -0.18126330 3.74410720 3.32059435 3.39079046 3.78225789 3.46725906 0.18256199 1.72747253 2.05864727 3.65912353 1.61305543 1.98385817 0.13648690 5.08695343 2.01704823 3.70756650 5.12055059 1.93374507 -0.13374531 1.91672427 5.09039801 3.47925340 1.81844520 5.13520501 -0.06107241 5.49596706 5.16855299 3.40318254 5.52301725 5.18000030 1.94115062 -0.17433420 1.92757911 5.50699343 -0.12810903 1.99313792 2.01227109 3.41251969 1.98569492 5.49705418 3.43141835 2.03959399 1.69804529 0.21406951 5.25526640 5.18353165 0.18098628 5.21782420 1.64797295 3.68400558 5.21072875 5.24018012 3.72512194 5.17598736 1.95138983 1.54845752 0.11400710 5.43094738 1.54897024 0.13423117 1.85460879 5.11917671 0.16187006 5.51060259 5.07204142 0.12198316 1.66675107 1.95438961 3.34875277 5.15991066 1.98000928 3.32490259 1.68572805 5.56061562 3.34220299 5.15732681 5.47626608 3.30335195
-0.00699154 -0.02482591 0.01776509 3.50113753 -0.03936119 0.00061160 0.01349654 3.58938575 -0.03694567 3.51903821 3.57514562 -0.01655613 -0.00783618 0.02392074 3.55011256 3.55979265 0.00837747 3.55377309 0.01382845 3.55240170 3.51055168 3.51156754 3.58634205 3.50317276 0.04152914 1.76904872 1.77186652 3.62805861 1.76826690 1.79315366 -0.03379276 5.35305303 1.80465505 3.53188533 5.32087412 1.79684016 0.00426559 1.79792324 5.37995530 3.56029677 1.75242414 5.35123790 -0.03321896 5.34742399 5.34358807 3.56293707 5.30186349 5.35289021 1.76811651 0.00327759 1.81039043 5.27784392 -0.00700880 1.84838957 1.84194297 3.61138140 1.81938415 5.29077335 3.57818863 1.76965376 1.77093797 -0.02023780 5.33967932 5.38721730 0.05070040 5.32246076 1.76969013 3.54735556 5.38515279 5.32602478 3.53972127 5.33602946 1.76753733 1.78821538 0.01380762 5.36615183 1.75509533 -0.03464101 1.77526182 5.31737337 -0.02015996 5.32882040 5.27517932 -0.05638023 1.81075016 1.80423584 3.54717812 5.39918182 1.79096296 3.49034751 1.81068150 5.29667724 3.50592616 5.33157953 5.32803179 3.50450052 -0.12811057 0.08114341 0.26179204 3.39658956 0.10165092 0.23290210 -0.11324126 3.68885640 0.21006316 3.34477021 3.69172031 0.19523324 0.10096762 -0.07318707 3.28603373 3.65714528 -0.10319523 3.27427935 0.07829513 3.54185514 3.23371074 3.59254861 3.42211009 3.27722487 -0.04616406 1.84931547 2.03794100 3.50129341 1.82822090 2.06626866 -0.10533185 5.48071388 2.05595868 3.37149698 5.47116728 1.99778394 0.09680888 1.69980394 5.11091037 3.63555920 1.61921212 5.11325361 0.11389067 5.30474403 5.09534330 3.60592996 5.11851842 5.10806952 1.60457170 0.06453338 2.05245846 5.11253046 0.05948722 2.10953888 1.79124028 3.62436556 2.13133326 5.20382618 3.67356409 2.03010011 1.80175863 -0.17512523 5.09544121 5.57583643 -0.07020533 5.11704326 1.90055037 3.45044024 5.14023667 5.43975382 3.36408141 5.11645096 1.56585259 1.84866151 0.24309543 5.30378267 1.90596907 0.21426827 1.68366397 5.41881674 0.24248809 5.23470792 5.35251190 0.22289588 1.89796248 1.60013819 3.35030462 5.41189614 1.68271687 3.21223911 1.92126767 5.26267506 3.21828044 5.43045386 5.22753621 3.23434667
0.02673878 -0.01120004 0.00150184 3.48853714 -0.01506544 -0.04336382 -0.02241147 3.51459666 -0.02591260 3.55882967 3.58597064 -0.05313214 0.03562553 -0.03221164 3.50075580 3.58968543 -0.01956506 3.51663690 0.00736844 3.52934523 3.51441985 3.51382994 3.51341442 3.48616585 -0.03808982 1.76725465 1.84677928 3.55630054 1.78120339 1.81228925 -0.03118025 5.31466422 1.79482689 3.58119332 5.30617726 1.79559545 0.00555835 1.79023943 5.33581362 3.56414999 1.78696158 5.32218258 0.00630490 5.29600913 5.33893836 3.57640171 5.29961257 5.34141926 1.81755617 -0.00779091 1.79554739 5.29232745 -0.04344711 1.80588077 1.80876867 3.58656158 1.80550271 5.31667921 3.55548951 1.82775184 1.73124291 -0.02248702 5.37829461 5.27654076 -0.04262758 5.39542128 1.77785701 3.56770907 5.36248076 5.29443536 3.57977018 5.35246472 1.77565647 1.76147303 -0.02828211 5.27889788 1.79822317 -0.00269705 1.78925739 5.31221274 -0.07508498 5.32463516 5.29683596 -0.04355861 1.74400236 1.80415791 3.52862976 5.37999972 1.80148132 3.52756691 1.74165741 5.31788390 3.50264779 5.29279649 5.31761524 3.53837661 0.08570506 -0.13175837 -0.27334056 3.63133826 -0.08553510 -0.31023563 -0.05222567 3.46394799 -0.32376411 3.59332187 3.56158736 -0.35263903 -0.00387560 -0.01261275 3.81444207 3.50190507 -0.08006174 3.78161731 -0.06819194 3.61675158 3.78439149 3.53099324 3.48698356 3.77105128 -0.00060869 1.73003484 1.53412256 3.54425964 1.71640490 1.53709558 0.07169097 5.31330149 1.50805023 3.66663816 5.21805900 1.50795476 -0.03648940 1.86692231 5.63598731 3.44024948 1.81733359 5.57467538 -0.00753183 5.30590033 5.63089872 3.58949927 5.26929045 5.64365417 1.88129334 -0.08745789 1.51150326 5.31819600 -0.10438848 1.49738058 1.89292547 3.54887893 1.51557870 5.33606480 3.48718758 1.54037882 1.79968983 -0.00378860 5.65233637 5.25160416 -0.03742118 5.70791922 1.70313787 3.65629661 5.62236609 5.25373219 3.62743249 5.64298972 1.86375436 1.68369262 -0.31280024 5.25541022 1.86142066 -0.30181616 1.81917591 5.16907152 -0.32954855 5.40053570 5.23406696 -0.34121070 1.70591377 1.84593809 3.81507075 5.40081152 1.86233856 3.83301497 1.70536023 5.36756655 3.79267614 5.16672791 5.41340696 3.80299680
0.00161387 -0.02021009 -0.02183040 3.57935686 -0.06246136 -0.06293053 -0.05949695 3.58539070 0.03190928 3.54986979 3.49200750 -0.05244554 0.00822116 -0.00706532 3.53231321 3.52365453 0.02224470 3.58040851 0.00227163 3.50430725 3.54264989 3.53166356 3.58233007 3.51233013 0.03365664 1.78853620 1.85888133 3.57749721 1.73055213 1.77953836 -0.00061426 5.32095032 1.79571621 3.58729483 5.32573784 1.84447053 -0.04253292 1.77742741 5.38124800 3.56620062 1.77130208 5.30698977 -0.00478219 5.33663975 5.37237879 3.54651144 5.32988390 5.37164945 1.79691522 0.02998583 1.77126463 5.34127715 0.02614499 1.82578366 1.80724651 3.56710881 1.75873023 5.32109407 3.53678138 1.79764563 1.77997514 -0.03248415 5.34221119 5.30192321 -0.01779070 5.45608897 1.76250007 3.58355698 5.35620347 5.31379895 3.55718543 5.38228120 1.77707494 1.76719163 -0.05932827 5.34027067 1.77440764 -0.03453574 1.78844695 5.37894336 -0.03265453 5.31312642 5.29757523 -0.04944751 1.84140142 1.78454497 3.51975267 5.36139287 1.77971000 3.48987882 1.76876918 5.31427435 3.51300129 5.36666640 5.30051679 3.55297946 -0.12480553 0.15740039 0.16527462 3.41038588 0.19736276 -0.01153150 -0.25637996 3.82607871 0.08410917 3.44458425 3.75391039 -0.00292581 0.13304764 -0.28222275 3.46874175 3.60851189 -0.19489178 3.41787947 0.17589605 3.25063520 3.50603783 3.64055548 3.34595090 3.39635261 -0.02861546 2.08409727 1.87849795 3.45276912 1.97866144 1.89437576 -0.17387808 5.56265624 1.89792718 3.50116775 5.55107369 2.00474082 0.02488674 1.49970998 5.24284602 3.66601487 1.53341725 5.16640931 0.11461970 5.05649157 5.32404764 3.56186504 5.03405298 5.26839973 1.71056387 0.28271001 1.91533790 5.22687755 0.28379881 1.92641188 1.64738930 3.76804104 1.89668559 5.23116676 3.80423593 1.91903166 1.90433193 -0.28927373 5.22788202 5.41140680 -0.27924921 5.44299151 1.87341252 3.33346599 5.27042851 5.42015578 3.33170225 5.25035141 1.56487742 1.95548916 -0.01929187 5.18817957 1.99648338 0.11964152 1.65680734 5.63242697 -0.02868851 5.22126008 5.57044474 0.06291334 1.98803702 1.60950675 3.34829595 5.42743171 1.54274126 3.34799611 1.89282863 5.08113339 3.40816650 5.49157574 5.06679049 3.40745019
-0.01778564 0.01096875 -0.09558177 3.54297136 0.01373032 -0.04224190 0.03879137 3.57938019 0.01340005 3.51781610 3.55180747 -0.03679744 -0.01982640 0.00706392 3.54301350 3.58794667 -0.03309885 3.51942725 -0.00166526 3.54170914 3.50387157 3.48435232 3.54436603 3.55755747 0.04873182 1.77749098 1.75377576 3.55990013 1.80155799 1.80839621 -0.02285111 5.30046189 1.79355209 3.53738079 5.35790047 1.83679734 -0.02811164 1.75117064 5.29538449 3.51386564 1.75870429 5.34853305 0.01338529 5.35494650 5.39222079 3.49471931 5.29772517 5.34261639 1.77110555 0.00003116 1.80853716 5.34210846 0.01133439 1.84761849 1.75995893 3.57189546 1.80498466 5.30555453 3.54080463 1.81578615 1.82266893 0.03624182 5.35231938 5.36762401 -0.05673384 5.42107667 1.75004690 3.59867071 5.41051044 5.30344351 3.57506265 5.33848890 1.75749383 1.77918382 -0.01186008 5.33941725 1.79234947 -0.01730169 1.79157073 5.33410383 -0.00731680 5.28998572 5.31285803 -0.01228637 1.75011795 1.77947394 3.49123588 5.27016113 1.76915677 3.53333157 1.78735745 5.35288084 3.51912262 5.34236207 5.32680748 3.50541238 -0.15966204 0.23686706 0.04555029 3.47708987 0.24119079 0.15261403 -0.08672852 3.77300630 0.20841807 3.46075592 3.82459832 0.03682760 0.16121603 -0.17496252 3.40083521 3.80889490 -0.19453075 3.40475835 0.20138358 3.33504066 3.37793256 3.62458962 3.28212246 3.47618646 -0.11097153 1.95506380 1.95501461 3.48084586 2.07212148 1.89182436 -0.18024124 5.43587971 1.99387758 3.35723468 5.49500508 2.05510112 0.11156371 1.59592084 5.09680238 3.67766508 1.56028438 5.20960321 0.13295159 5.13948006 5.23296138 3.63248023 5.05484744 5.21193326 1.54261495 0.18787003 1.91608920 5.24737112 0.25547064 2.01488831 1.65976798 3.76138648 2.03452737 5.20747798 3.77947007 1.97576652 1.99364035 -0.20526123 5.28850017 5.55517797 -0.27600545 5.30164712 1.90900031 3.44294565 5.22883167 5.41360007 3.29706956 5.24000334 1.63123637 2.01367907 0.12324773 5.28951547 2.03435563 0.14979135 1.69811790 5.60017368 0.10749134 5.18595989 5.56270859 0.13743436 1.81824690 1.59602450 3.28168231 5.42238589 1.57174164 3.39963359 1.92819769 5.11733624 3.39697756 5.45063040 5.10568158 3.32724554
-0.02522954 -0.04506490 -0.12047716 3.52897261 0.05191471 -0.07708540 0.02463236 3.56769921 0.00028633 3.52622444 3.53108279 -0.02486990 -0.00115125 0.02577678 3.56483074 3.54983591 0.00382138 3.51786843 -0.02953023 3.48287977 3.53698396 3.53833032 3.59023700 3.52381653 -0.07130913 1.77092450 1.87430773 3.58613623 1.75657410 1.77127206 -0.02308019 5.29407171 1.82039276 3.46320437 5.35148412 1.81246506 -0.01412452 1.80268549 5.30320792 3.60007501 1.71226130 5.32976957 -0.00228564 5.35561715 5.36973865 3.57495323 5.32053471 5.33095268 1.76910805 -0.00886688 1.80996513 5.31981731 0.04977249 1.82226142 1.75796362 3.58848612 1.79311829 5.36144393 3.53854917 1.78543239 1.83325509 0.03070721 5.31787981 5.35351514 -0.03662882 5.34397677 1.80827385 3.54908454 5.39154915 5.33045575 3.51379423 5.39890338 1.78152242 1.74281685 -0.01675809 5.30305240 1.80100209 -0.03642174 1.81402575 5.30608075 0.00412462 5.25516067 5.31284736 -0.00884026 1.77665401 1.73706337 3.55574576 5.29953297 1.77534620 3.55750883 1.82903656 5.32280376 3.50356581 5.29169349 5.38018889 3.51236220 -0.00135423 0.01323221 -0.40812961 3.60747378 -0.00024871 -0.37165410 0.01940115 3.56685795 -0.29404844 3.44447838 3.59630954 -0.29412319 -0.05539389 0.07208289 3.84633555 3.56968618 -0.04017646 3.80609443 -0.04274567 3.51494779 3.85323505 3.53668170 3.59741163 3.83018325 -0.06709592 1.77467730 1.57351676 3.63221791 1.81750155 1.46418862 0.00424650 5.22312158 1.54303058 3.38675540 5.30181740 1.52667196 -0.01697935 1.73728643 5.57804360 3.67882561 1.79012073 5.62177811 -0.05115634 5.30968738 5.65446112 3.66274237 5.36265706 5.61426479 1.75316925 -0.00598704 1.49555731 5.27259953 0.13988367 1.53971772 1.66736492 3.54912329 1.49390789 5.35655269 3.49077825 1.49648528 1.87835930 0.01443286 5.61333025 5.35549461 -0.04325475 5.65626422 1.76239859 3.62577612 5.68091565 5.30842405 3.60279875 5.67145364 1.77222757 1.73928393 -0.33065115 5.31922466 1.80592718 -0.32444824 1.84850199 5.32702636 -0.28851641 5.23824687 5.32613081 -0.30611173 1.80491022 1.70660299 3.85943209 5.29069625 1.78317156 3.85050586 1.87629280 5.37103728 3.77862391 5.28286801 5.40720018 3.80079676
0.00339116 -0.03394628 0.00567440 3.51078962 -0.05618638 0.02426753 0.01448282 3.55813083 -0.08962872 3.55679939 3.54535677 -0.04378712 0.01800225 -0.04609143 3.54708829 3.55103956 0.00724599 3.48655833 -0.02753203 3.51799660 3.52169286 3.56282915 3.54632292 3.52101909 0.05198816 1.76670075 1.82546357 3.57058663 1.72936724 1.82375622 -0.00986884 5.31905398 1.81580127 3.54510577 5.34158259 1.82210878 -0.00187836 1.74649488 5.37766186 3.51424877 1.76701504 5.31489868 -0.01103547 5.30054392 5.36832162 3.55313685 5.34488249 5.39210917 1.76656358 -0.04617037 1.79635985 5.35596428 0.02889710 1.85070434 1.74711933 3.54580202 1.82860957 5.29845766 3.57723971 1.80585891 1.78993321 -0.04213511 5.32695354 5.31416487 0.01183190 5.35908297 1.76386532 3.58443542 5.32860013 5.33921083 3.53219905 5.33327972 1.80334339 1.79569346 -0.03306302 5.36341478 1.76919602 -0.00449854 1.74941671 5.30938672 -0.02699437 5.33921881 5.32240840 -0.02687848 1.75671060 1.77126520 3.50243581 5.35511872 1.76016890 3.46107900 1.77979996 5.31650978 3.49619231 5.36010796 5.30752574 3.49869254 -0.28838824 -0.08349750 -0.02153429 3.22947506 -0.16334342 0.09465558 -0.28247131 3.46848410 -0.02827015 3.27334442 3.48114775 -0.07979419 0.30840295 -0.06883744 3.62310213 3.84470348 0.00431631 3.60415066 0.28281446 3.53006710 3.57831219 3.84615260 3.57633225 3.53105761 -0.23975716 1.72102465 1.83735696 3.28453068 1.68266160 1.81008713 -0.31340114 5.26896749 1.78761515 3.28721098 5.22622830 1.78780023 0.29337504 1.80134781 5.40178227 3.80155869 1.71406933 5.28231139 0.24387748 5.36037183 5.47518160 3.86217264 5.40735888 5.42088721 1.48811526 -0.11342491 1.74573380 5.08794225 -0.04641623 1.72648607 1.48671202 3.44869711 1.77343474 4.99762382 3.55562284 1.85702925 2.06396197 0.02463159 5.44490887 5.59867444 0.04739212 5.38440746 2.07709839 3.60326536 5.29736426 5.61667488 3.58471628 5.34226403 1.51714681 1.71723704 -0.06151881 5.06491889 1.79035465 -0.02024002 1.46506367 5.25847242 -0.07468365 5.05201091 5.22406081 -0.00676935 2.05380754 1.75719465 3.45576911 5.60779822 1.88315126 3.50261678 2.08052726 5.35855741 3.55443303 5.63599168 5.45916807 3.48615521