-267.56171561
-267.48052797
-267.62394741
-267.54248200
-267.63902869
-267.47325409
-267.56702383
-267.49368531
-267.61686787
-267.67011188
-267.59695634
-267.58258236
-267.42316511
-267.69022236
-267.60402459
-267.76871691
-267.55020305
-267.59817865
-267.66416767
-267.57919176
-267.52395671
-267.68879343
-267.54026964
-267.65085038
-267.52460365
-267.52600660
-267.68284497
-267.61776935
-267.63727269
-267.62419301
-267.62527415
-267.64252535
-267.53587686
-267.57914165
-267.61376338
-267.50072662
-267.50032380
-267.59001528
-267.56654330
-267.66965336
-267.51199169
-267.58328568
-267.48554223
-267.58677998
-267.45165328
-267.60004548
-267.55020359
-267.53694684
-267.57144634
-267.54890265
