0.19678712 0.02388512 0.23882690 0.39949544 -0.18465639 0.20728307 -0.41334343 -0.28707709 0.28315407 0.00099825 0.37644738 -0.10827356 0.01604871 -0.11399791 0.19953372 0.22782642 0.05068822 0.19499634 0.36511156 0.39801285 -0.43205089 0.07670147 0.08793028 0.70208245 0.22843014 0.06195959 -0.08556139 0.33150796 -0.08599400 -0.03650828 -0.30448011 -0.45389241 -0.03782339 0.46255986 0.57362365 -0.26325962 -0.33997693 -0.29402379 0.11671674 -0.07808011 0.02605390 -0.76359891 0.22469352 -0.09846153 -0.48308285 -0.15012045 -0.24001590 -0.45308452 0.17142495 0.67416550 0.03574831 -0.29564254 0.16271496 -0.24908975 -0.53642143 -0.56405273 0.02506636 0.07153699 -0.29155287 -0.62755126 -0.11234971 0.11224062 -0.02401982 -0.61008727 0.26356455 -0.58243130 0.42746900 0.28127152 0.16136642 0.03710020 -0.20987451 -0.10187332 -0.12720554 0.03980794 0.34996289 0.31522683 0.15144486 0.59812086 0.38098365 -0.00284468 -0.26633881 -0.25792790 -0.01758650 0.74756401 0.24699711 -0.22038937 -0.39417310 -0.57658263 -0.19252862 -0.12007675 0.07833706 -0.29140666 0.60001498 -0.45701818 0.26454401 0.56836039 -0.04164932 -0.03285564 0.02444969 -0.02581270 -0.00901560 -0.01867842 0.00269994 -0.03285115 0.02280507 -0.02344220 -0.01023850 0.00350611 0.04017186 -0.05809091 0.02794915 -0.05289351 0.00928609 -0.04449493 0.02786530 0.02977986 0.02044659 -0.01498140 0.02359829 -0.01019001 0.04059828 0.01023090 0.04650419 0.02946484 0.00491757 0.03641991 -0.01863504 -0.02322264 -0.08320270 0.00223665 0.00004238 -0.00357353 0.02420839 0.02479548 0.04985796 0.04719681 -0.04438439 0.00755683 0.04837129 -0.00561202 0.06505719 -0.02504994 0.00666802 0.01197500 -0.05277977 -0.01320456 -0.05913729 -0.00562523 0.01904190 0.02901712 -0.09041986 -0.02103761 -0.00107092 0.03583325 -0.03224626 -0.00449969 -0.00547498 -0.00306826 -0.00653694 0.05779749 0.02891817 0.00866291 -0.02556621 -0.03384905 -0.01857609 0.01659074 -0.01685769 0.04364234 -0.03274064 0.00470731 -0.06236913 -0.00030083 0.00023192 -0.08014805 -0.02261897 0.00949276 0.03212457 -0.01642605 0.00207192 -0.00815465 -0.02875660 -0.03947326 -0.02146498 -0.01609767 -0.02032549 0.00353056 0.00973039 0.06835267 0.04681484 0.05688130 -0.01973476 0.03659123
0.22643462 0.53319577 -0.40571944 -0.04033548 0.27517666 -0.21039765 0.01076993 -0.15593458 -0.08115374 0.20247839 0.23897028 -0.02571275 0.18485413 -0.21627751 0.58962333 0.19568843 0.46608210 -0.29137714 0.21284164 0.24906044 0.38301835 0.22516859 0.64860447 0.25119303 0.05765838 0.45487282 -0.39295317 -0.07672835 -0.60199225 -0.25396560 0.22332661 0.29959093 0.59208391 0.20059282 -0.30401485 0.01755054 -0.00035775 -0.70423562 0.19879476 0.35032514 -0.36923249 0.21947284 0.16177414 -0.01384790 -0.48103844 0.40682564 0.30400993 0.24565845 -0.08626709 -0.14440870 -0.47956353 0.00851808 0.17646526 0.22323835 -0.23190807 -0.24719466 -0.07198471 0.09082546 0.05091614 -0.56911026 -0.23685546 0.09575040 0.00501239 0.14017918 0.08690024 0.41546837 -0.53611590 -0.49979851 0.04135534 -0.46410798 -0.10761981 -0.12350904 -0.14530742 -0.02192881 0.07137366 -0.25254571 -0.06529356 -0.19776337 0.10422064 0.45334238 0.46204665 -0.45850467 -0.02658942 -0.00869705 -0.40296839 -0.10061448 0.04003962 0.28392102 -0.16988729 -0.05286876 -0.47754330 -0.42171722 -0.03614466 0.12314275 -0.16235015 -0.07397030 0.00909085 -0.00257105 0.04962324 0.00856605 -0.00575841 -0.00461623 -0.03081560 -0.05334926 -0.00107626 -0.00732290 0.00698937 0.06541940 0.01977940 0.05250489 -0.05311778 0.02229055 -0.01698281 0.01640733 0.04637095 0.04451572 -0.03059513 0.02796596 0.09947161 -0.06469802 -0.00376405 -0.00721735 -0.02141420 -0.03173044 -0.07398816 0.05991682 0.01259706 0.03405880 -0.00730948 -0.06173860 0.01587642 -0.03340242 -0.03890806 -0.03662983 -0.00237603 0.01509149 0.01748468 0.00549447 0.04450768 0.04037786 0.04355312 0.04186236 0.02442146 0.00209584 -0.00085686 0.02251446 -0.00545475 -0.00477494 0.00763660 0.00052553 -0.03022825 -0.04283238 -0.00140011 -0.04031477 -0.03792133 0.01195584 0.00515184 0.00399224 0.01563623 -0.06602919 -0.03586574 0.00062965 0.02958255 -0.01949108 -0.06143817 0.02707659 0.00783385 0.05011672 0.03100682 0.01130328 -0.02664317 0.01445359 0.02870056 0.01241776 -0.03454747 -0.08216785 0.02820187 -0.00844764 0.00508424 -0.03282717 0.03127624 0.02667618 0.04781787 0.01458690 -0.00466102 -0.01257459 -0.00978553 -0.00854887 -0.05745787 0.05189964 -0.01336563 0.01785612
0.25906185 -0.41745809 0.24258880 -0.34610542 0.07140403 0.66840743 -0.25933930 0.29202080 0.45028596 0.04728774 -0.09853151 -0.33689019 -0.59571513 0.25678086 -0.12263905 0.20126075 0.24166834 -0.27150514 -0.24116253 0.28272771 0.05742875 -0.31655156 0.16266127 0.30908583 -0.11121328 -0.14467312 0.03573571 -0.08612255 -0.33167217 0.41295847 0.11493045 0.32556476 -0.03097194 -0.25921206 0.13634973 0.23702167 -0.20905998 0.17798141 -0.57168957 -0.36925905 0.46395552 -0.37802917 -0.02024430 0.19565068 -0.37849143 0.25009221 0.19325519 -0.41936398 0.14393176 -0.42760896 -0.57700069 -0.07895319 -0.08342085 0.02093043 0.22173246 0.00103043 0.20843859 0.26427013 -0.48795006 -0.13278389 0.15699593 0.18880184 0.51369756 0.14023161 -0.18578111 -0.35010135 0.60924945 -0.70033900 -0.12579156 -0.15921188 -0.17454277 -0.02798132 0.23998302 -0.15050350 -0.54336870 -0.05793320 0.42162086 0.21478766 -0.10792450 -0.07517916 0.52562748 0.06553086 -0.24629493 0.09385326 0.39705990 0.39897000 0.30942269 0.04719090 0.27415126 0.12991452 0.07787131 -0.48716234 -0.23652266 -0.01867239 -0.07347712 0.07294585 -0.01514112 -0.00642106 0.02772128 0.03902632 0.03537508 0.04264996 -0.01205353 0.00414041 0.08511544 -0.01220643 -0.00070229 0.01483810 -0.01394874 0.03037418 -0.02651187 0.00864864 0.00456531 0.00833830 -0.02015487 -0.01975978 0.03015362 0.00211243 -0.02071697 0.03509047 0.00513857 0.00279750 -0.02374815 0.01526609 -0.02215957 -0.04483142 0.00046497 -0.00627455 -0.02300059 -0.01522817 -0.00116466 -0.03355577 -0.01571768 -0.00595583 -0.04928742 -0.02121032 -0.02389494 0.00240586 0.02048429 -0.03239880 -0.06367784 -0.00476344 0.00607018 -0.03118238 0.01046507 0.00100205 -0.00028994 -0.01541011 -0.01678556 0.05074415 -0.02653497 -0.03728589 -0.02259405 0.01064241 0.01773856 -0.01383933 -0.02289782 -0.01828181 0.02215643 -0.02324763 0.02094197 -0.01766761 0.00626903 0.01460828 -0.06078493 0.00435491 0.02208565 0.00563936 -0.01566557 0.00478235 0.00740805 -0.02193792 0.00617142 0.01967617 -0.03682802 0.01258284 0.03086732 -0.00644623 -0.04547909 0.02627510 -0.02767273 0.02131091 0.01887772 0.01931301 -0.00389074 0.04689092 0.01519189 -0.02592628 0.00925183 -0.00854248 -0.03535932 -0.00286502
-0.08724267 -0.48278019 -0.37498119 0.06222592 0.02950275 -0.08839138 0.18585818 0.14479073 -0.18639091 0.06625355 -0.18451785 -0.67681917 0.00590214 -0.06776838 -0.40160562 0.37696744 0.47877042 0.68274672 0.11610958 0.57696970 0.07617257 0.00525748 -0.14952496 0.31263375 -0.80966254 0.17003208 -0.37219792 0.20488539 0.08130812 -0.38880258 -0.21429002 -0.17481645 -0.06852289 0.38260305 0.09310700 -0.79190348 -0.06791708 0.37433487 0.29319780 -0.21297985 -0.17835473 0.55144714 0.19921940 -0.33783305 0.21690727 -0.13104948 -0.07659070 -0.68683056 -0.25841327 -0.68050118 -0.43743119 0.13281509 -0.08959548 -0.05000455 -0.23490242 0.13571461 0.23642571 0.02785370 0.12163161 -0.05477283 0.44265094 -0.29507082 -0.09059277 -0.11592710 -0.22405065 0.06452807 -0.05345186 0.34463490 -0.06948409 -0.09776006 0.70042313 -0.32839380 0.30911888 0.02315023 -0.18821880 -0.10100713 -0.07511461 0.48057854 -0.44503384 0.07848160 0.34628564 0.13799658 0.07220573 0.66397322 0.44410628 0.27912744 0.73315921 0.08123299 -0.14272537 0.04483807 -0.49780820 -0.21121182 0.42563604 0.14638894 -0.33372868 0.12681399 -0.02260291 -0.03469374 -0.05188427 -0.00134997 -0.04792246 -0.00285649 0.04809644 -0.03794708 -0.00055521 0.00890444 -0.00597415 -0.04867344 0.05311538 -0.02276424 0.01507488 0.08252974 -0.01492544 -0.07601570 -0.02728179 -0.00442939 -0.03890433 0.03721747 -0.03076937 -0.04596947 -0.05455538 0.06389469 0.07424208 0.00669008 -0.01938828 0.03484659 0.02710710 -0.04280946 -0.03960952 -0.05441740 0.06377553 0.07699638 0.05629414 0.03136825 -0.01503003 -0.03688060 0.02013793 0.07895279 -0.01619757 -0.00441525 0.00413997 0.01732738 0.00493516 -0.01856523 -0.07642852 0.07745251 0.05486889 0.03485623 -0.00742009 -0.02311569 -0.03820740 0.03886740 0.03938861 0.00443375 -0.00917223 -0.03377282 -0.01163429 0.00274044 0.00926197 0.00400118 -0.01894016 -0.02730154 0.02168920 0.01528174 0.01905808 0.00001290 0.00875600 -0.01260836 0.04290419 0.03706889 0.02869561 0.00229777 -0.02172621 0.03256386 0.00999311 -0.01377598 -0.03056484 0.02461250 -0.00610971 -0.02585127 -0.05117041 -0.06572409 -0.07058513 0.00751946 -0.07035476 -0.05061845 -0.00277870 -0.02032470 0.02618362 -0.01088058 0.01243769 0.02190508
-0.07086623 -0.08097433 0.15461320 -0.03098158 0.22808098 -0.35894523 -0.32344530 0.16485748 0.34571390 -0.07214971 0.05385771 -0.11043256 0.09556920 -0.27417139 -0.15852234 -0.09564084 0.34870328 -0.63490649 -0.09665789 0.10011864 0.39887915 -0.18640018 -0.10863771 0.10287247 0.17188667 -0.03746151 -0.23230043 0.52730635 -0.16877032 -0.15171249 0.27752599 0.05668162 0.11025758 -0.02907951 -0.27109347 0.03754904 0.28362132 0.08815245 -0.83473360 -0.01640733 0.02077158 -0.07735965 -0.01244691 -0.17547145 -0.31774595 -0.06657085 -0.60884750 0.47197685 -0.12865767 0.41824144 -0.03714140 -0.25738893 0.00220585 -0.01511396 0.08217436 0.19975032 0.18312976 -0.05491011 -0.26543527 -0.15856734 -0.18974468 0.13536325 0.56195712 0.50235156 -0.07218771 0.37812703 -0.11304144 0.05197245 -0.55678614 0.11108101 0.11568410 0.23749249 0.03209490 -0.19861492 0.35910462 -0.14419109 0.11289379 0.54613519 -0.12512722 0.20750894 0.00473963 0.24195126 0.05811630 -0.38740147 -0.13807737 0.12718641 0.05009054 -0.13121932 0.11030152 0.03955047 -0.20966218 -0.34746423 -0.31715735 0.16710369 0.00868170 0.36663738 -0.01755919 -0.04424657 -0.02105381 -0.03976120 0.02110165 0.01303037 0.03550641 -0.00183212 -0.03002710 0.02478664 -0.01614986 -0.02092719 0.02120638 0.00491574 -0.02208845 0.02063041 -0.01283416 0.03530128 0.02557747 0.01182517 0.01101787 0.00080170 -0.03521746 -0.01369665 0.01671023 0.06071776 -0.00562965 -0.03028378 0.01820671 0.01365950 0.00111067 -0.02157165 0.00624238 -0.01583345 -0.01947999 -0.00313994 0.00033349 -0.00822418 0.02082641 -0.02036217 -0.00750911 -0.00276560 -0.00833344 -0.00676905 -0.00703043 -0.01003113 0.01644431 0.06090330 0.03180988 -0.01396445 -0.02479846 0.04997062 -0.00221870 0.02826366 -0.00241131 -0.01351875 -0.01720921 0.03725520 -0.00924267 0.01604660 -0.06918439 -0.00590473 0.00312816 -0.06697308 0.02474608 0.04462092 0.00540605 0.04681311 0.01448149 -0.02841690 0.01498690 -0.00431203 0.02517958 -0.03655202 -0.06160370 -0.02751628 -0.03611288 -0.02442949 0.03418123 0.04114285 -0.03412269 -0.00190550 0.00762680 -0.02430310 -0.01292352 0.02128478 0.01286160 -0.02939531 0.03039993 0.03656265 0.00379942 -0.02799953 -0.02925615 0.03698895 -0.02631628 0.01406180
0.21272266 -0.03087661 0.07205463 -0.04323294 0.24024774 0.06133595 -0.06852368 0.35321315 0.19731199 0.05018763 0.28368555 0.00196249 0.25302203 0.14061012 -0.13368079 0.01371772 -0.18379568 0.19666141 -0.12119708 -0.30530706 -0.39418538 -0.14226921 -0.00914005 -0.78577695 -0.01942645 -0.03420677 -0.25368207 -0.05675071 0.06808566 0.37073021 0.06158014 0.31877046 0.12586366 0.07715404 0.13960009 0.36056368 -0.03842891 -0.35033019 -0.37294493 0.20492933 -0.46554079 -0.23773297 0.23820514 0.10848743 0.63517228 0.16555244 -0.02792508 -0.54853892 -0.45595248 0.66801339 -0.88013265 0.07596891 -0.08144594 -0.17682860 -0.14511492 0.09512521 0.27647427 0.24907459 -0.34951674 0.63788731 -0.10437329 0.40380593 0.05766678 0.00438235 0.20341504 0.43646926 -0.28944612 0.22526080 -0.29864900 0.08251185 -0.02927539 -0.26229647 -0.44673680 -0.91530385 0.67690933 0.32358742 -0.25725792 0.34500237 -0.45775438 -0.13276678 0.43005147 -0.08043477 0.05172092 0.26958409 0.09349617 0.06159043 -0.01404333 0.22783388 0.28203012 -0.34067834 0.25902727 -0.37369093 0.04021345 -0.12331183 -0.09728227 -0.49274423 -0.01763169 0.03612315 -0.04992619 0.02142095 0.00126769 -0.01743919 -0.02200718 -0.02913071 0.02611404 -0.03252352 0.07625057 0.05766248 0.02960920 -0.04709984 0.02047530 0.02239399 0.03043609 -0.01916734 -0.00266311 0.04632014 0.02711826 -0.00300194 -0.02864953 0.02684010 -0.02119772 0.00027054 -0.04178559 0.01223365 0.00706132 -0.01701190 0.05697920 0.02341834 -0.01082359 -0.01561345 -0.02275097 -0.01116359 -0.00495501 -0.01835679 -0.01379725 -0.02223611 0.02029503 -0.08192903 -0.03642414 0.00097025 -0.02855741 0.02210337 0.07101515 -0.08130088 0.01301289 -0.01288107 -0.00205041 -0.00622831 -0.01070995 -0.00074429 0.00569943 -0.01845846 -0.04459782 -0.00459506 0.01726131 -0.05904393 -0.04187292 0.02816191 0.01274139 0.00697405 0.02690487 0.01056344 -0.05578662 0.03938351 -0.09542638 0.04931722 0.01624073 -0.08584383 -0.03142946 0.05286880 0.02849215 0.05977758 -0.01664822 0.06100536 -0.00021909 0.01709421 0.00066477 -0.03219202 0.01988440 0.00814350 0.02144144 0.01596887 0.02215290 -0.02613272 -0.00165309 0.04267239 0.05567937 -0.00807477 -0.03439001 -0.02869558 0.01221560 -0.03749285
-0.10991411 -0.13332510 -0.16988206 -0.27306200 -0.33400145 -0.09178618 -0.53498806 -0.73839786 0.28909224 0.53962072 0.10255440 -0.11349450 -0.23138161 0.14766907 0.43929275 -0.18993897 -0.13916182 -0.24449837 -0.17574213 0.15893837 -0.31363760 -0.16438846 -0.06632199 0.15778734 0.41370304 0.29103640 -0.22488793 -0.20688955 -0.10614572 0.48607285 0.29351904 -0.50407083 0.23721248 -0.17796406 0.24314115 0.32011705 0.23223857 0.09611852 -0.04598770 -0.46936222 0.42111175 -0.52539167 -0.02070795 0.33139642 -0.24248427 -0.18785462 0.20051642 -0.10727928 0.58767932 0.27191009 -0.15561129 0.16525988 -0.06464958 0.60130580 -0.15571452 0.05727333 0.14193724 0.27974953 0.18672085 -0.62949280 -0.02005520 -0.24014417 -0.51546922 0.15356093 -0.11980399 0.10654716 0.34974164 -0.25366562 -0.41729097 -0.13052128 -0.17031992 0.33091221 -0.05281015 0.08580075 0.42207831 0.65662103 0.23050309 -0.21450310 0.00029086 0.58097423 -0.08505648 -0.22439726 -0.13173610 0.27004607 -0.21178467 -0.38295126 0.18982777 -0.07097125 -0.10929744 0.12730177 0.12102375 -0.09915234 -0.10390181 -0.18456026 0.18748036 0.08112422 0.03679406 -0.06765143 0.02536918 -0.01221428 -0.03537004 -0.10230979 -0.02677977 0.02218051 -0.04147022 0.01757266 -0.03458042 -0.01610398 -0.00881341 -0.01624362 -0.01848305 0.03525439 -0.04968828 0.00781694 -0.00477673 -0.02680329 0.02541277 -0.02549538 -0.02222622 -0.00085648 -0.01080494 -0.02307980 0.03109421 -0.02363674 0.01137684 0.03420866 0.02643471 0.01812138 -0.01346755 0.03666379 0.00421832 0.01019033 -0.01435891 -0.01368778 -0.04693636 -0.00223056 0.03287976 0.01211668 -0.05831035 0.04368654 0.03857990 -0.00253408 -0.00592471 -0.00274023 -0.01538291 -0.02873077 -0.01050302 -0.00257306 -0.03473403 -0.02185886 0.00899647 0.03470883 0.01123102 -0.00229681 -0.03558141 -0.02340608 0.00866544 -0.01836606 -0.01464135 0.04409520 -0.00683668 -0.01066402 -0.06324818 0.04300668 0.04589547 -0.00609831 0.02600955 -0.00107307 0.04559476 -0.02453640 -0.00411021 -0.00046302 -0.03770548 -0.03905299 -0.01984422 -0.03607601 0.00013239 0.03139852 -0.03900007 -0.00787331 0.01624847 -0.03572226 -0.02849919 0.04100744 0.02112024 0.06002742 0.03187977 -0.03328764 -0.03700922 -0.01804393 -0.02733930 -0.03939374
-0.40696665 0.35461050 0.36031827 0.17749442 -0.29572737 -0.05532840 -0.08670847 -0.19135009 0.85120450 -0.17955262 -0.49146994 0.84154173 -0.12170470 -0.07195641 -0.12374715 -0.21200174 0.11782991 0.69482426 0.36088545 0.11566386 0.96975034 0.28302450 0.16677469 -0.44029153 -0.01752877 -0.35078905 -0.50440788 0.36635996 0.08058037 0.01615548 0.18033932 0.65851626 -0.34388392 0.16066226 -0.25436755 -0.08081950 0.24661840 -0.46179921 -0.14128524 -0.27749114 0.14656449 -0.13848045 -0.14167366 0.02649463 -0.64880977 -0.04511598 0.12794415 -0.13216261 -0.23002798 -0.31794101 0.08713116 0.45952267 -0.03908969 -0.45324052 -0.17072564 -0.19539462 0.10142488 -0.94971504 -0.47128779 -0.40711233 0.10254466 0.38774643 -0.52730224 -0.07607111 -0.08036615 -0.05905475 -0.04420076 0.42920211 -0.61390912 0.05534929 0.03202873 -0.64388074 -0.05529824 -0.21147720 -0.20494965 0.14169195 0.06068043 0.25061153 0.50921790 -0.30702518 -0.13849770 0.00310676 0.77771006 0.35630363 0.03424403 0.19271248 0.07646094 -0.07952623 -0.00912945 0.11641433 0.09892573 0.11785905 0.37465662 -0.08567857 -0.04374745 0.56036584 0.02115641 0.01780657 -0.01158751 -0.05590045 -0.01137961 0.00461820 -0.10982141 0.01167532 -0.04590164 0.03967918 0.03385378 -0.03565689 -0.00086402 0.05666376 -0.04647416 -0.00422840 -0.00761709 -0.01185442 0.04566149 -0.04620720 0.00803404 -0.04113687 0.03743086 -0.05480841 -0.00505337 -0.05671067 -0.02146173 0.00081990 -0.00128201 -0.01660718 -0.02298977 0.04370231 -0.05438844 -0.01034604 0.00096095 0.01356799 -0.00084817 0.01628238 0.08027368 -0.01405917 0.04535140 0.01150023 -0.02113484 -0.02391732 0.04495657 -0.00574755 0.02454936 -0.01226153 0.00101689 0.02918998 0.01484441 -0.02950129 -0.02154539 0.01088404 -0.06563301 -0.00134733 -0.03699133 0.02527838 0.01027253 -0.01948449 -0.01955032 -0.06161651 0.00514191 0.01046445 -0.00525501 -0.01734986 0.03972688 -0.00827545 0.02707955 -0.02724620 -0.02827270 0.04259041 -0.03203722 0.06161702 0.00749994 0.02656530 0.01032446 0.02265802 0.00028878 0.04619102 -0.01476579 -0.04281320 0.00802674 -0.01983635 -0.00524417 -0.03462925 0.01220076 0.01896409 -0.05489035 0.02363830 -0.04071259 -0.01659564 -0.02307665 0.01389520 0.02212926 0.00547943
0.04092231 0.05503484 -0.36499453 0.49429510 0.22181404 -0.36854910 -0.13493114 -0.19575531 0.17408308 0.35198806 -0.37504379 -0.26723234 0.20297222 -0.09337807 -0.31521485 -0.05818805 -0.02352452 -0.04979237 0.00489879 0.04589109 -0.13332415 0.65838386 -0.38136264 0.37013254 -0.06874816 0.17931734 0.22924317 -0.45890364 0.11661570 0.09681694 0.27013011 -0.11951747 0.13039846 0.29152488 0.32767769 0.13077121 0.30569854 -0.04371779 -0.11516814 -0.02792063 0.18126845 0.22588615 0.35510232 -0.18406428 -0.00612275 -0.08352195 0.15053680 -0.05659945 0.08250678 0.02066561 0.26738226 0.43639180 0.00859154 -0.55385854 -0.69254722 -0.58376498 -0.35182700 0.32378131 -0.14311739 0.27180792 -0.10628586 0.15040075 0.26924847 -0.46965684 -0.35572290 0.43738285 0.00126042 0.03012184 -0.28629453 -0.08854827 -0.13415240 0.05309988 0.13182023 -0.12902412 -0.31911392 -0.32442741 0.15156465 0.17506286 -0.16991072 0.16146325 -0.27179774 -0.12893503 0.52217861 0.13422151 -0.15523134 -0.06215496 -0.26701334 -0.38112017 0.21358884 0.20598700 -0.48262117 0.43112734 0.36476515 -0.12017915 -0.14355776 0.19061329 -0.00267408 0.00985918 0.02057220 -0.03031165 0.01108502 0.04223668 0.02114872 -0.00062514 -0.00945191 0.04210020 -0.01959802 0.00512119 -0.01034256 0.01853942 0.01862940 -0.01617659 0.00356725 0.05541145 0.02551506 -0.03381050 -0.02966169 -0.00686613 0.03714095 0.00110152 -0.02330598 0.01466775 0.02814693 0.00415103 0.01774255 -0.03334201 -0.01436205 -0.00380699 0.01178488 0.05656285 -0.05732460 -0.01314632 0.00173072 0.01225732 0.03951040 0.01849237 -0.04270248 -0.05085490 -0.01323085 -0.01451468 -0.01046328 0.02779930 0.04865762 0.00267879 0.01970987 0.00361439 -0.00407923 0.07281641 0.00237577 -0.06919257 -0.00489341 0.02515937 -0.10473646 -0.00195887 -0.00098441 0.01985956 0.04478678 -0.01160146 -0.04319211 -0.05298558 -0.00455493 -0.01766049 -0.01296932 -0.01539283 0.00386202 0.00369075 0.02285894 -0.02372723 0.04781554 0.00632798 0.00854836 -0.03808898 -0.02005839 0.01148959 -0.00264543 -0.00406698 -0.03315508 0.00615384 0.02179371 -0.04771074 0.00399489 0.01403581 -0.05475535 0.04032103 -0.00222545 0.03427466 -0.02035889 -0.02904021 0.07603765 -0.00325936 0.01568539 0.04378359
-0.29962502 0.07693967 -0.16950708 0.31610472 0.10896718 0.04987858 0.15442650 0.16248420 0.00635042 -0.16992964 -0.41300316 0.19007347 -0.30266542 0.08633346 0.24731237 -0.38679955 0.22406659 0.20975090 0.00379835 0.35652948 -0.05360157 0.18937189 0.24804851 0.37431488 0.41580197 -0.03418437 -0.68812895 -0.03657844 -0.12898944 0.03034869 0.21606192 -0.07669948 -0.01627239 -0.36331634 0.04822461 0.11042551 -0.19165778 -0.24917761 0.25748012 -0.25036546 -0.13508161 0.19120653 -0.09182726 0.10510316 0.23141593 -0.43592798 0.19397335 -0.18407012 -0.17156081 0.07143468 0.14778838 0.26679539 0.38645516 -0.10030613 -0.41243714 -0.31077470 -0.30746717 0.04388551 -0.08860888 -0.10466646 0.24603723 0.23452980 -0.48361095 0.47508846 0.46777086 -0.30044204 -0.02059550 -0.27509327 -0.06481088 0.29294111 -0.39353248 -0.07905855 0.04837673 0.25133121 -0.01168996 0.17160103 -0.20857103 -0.23403313 -0.24909697 -0.10459490 0.41710828 0.11737213 0.14234745 0.20613555 0.30835417 -0.33320031 -0.10227352 -0.52849221 -0.38938531 0.19594990 0.37640665 0.04551154 0.11385063 0.26845175 -0.06915435 -0.07945122 -0.00150302 0.01932708 -0.03506966 -0.06135575 0.00246379 0.01973669 0.03228914 -0.00106051 -0.01124575 0.00543894 -0.01976166 0.05043898 0.00268311 0.00392983 -0.06433710 0.02616254 0.01711036 0.04135281 0.02037700 -0.02601692 -0.02346328 -0.03562706 0.03315963 -0.02125345 -0.01384502 0.00643560 0.05691094 0.01895208 0.00906971 -0.03041912 -0.02871737 -0.03614991 0.01649532 -0.02922839 0.03284542 0.05975330 -0.00278248 -0.00592664 -0.00830797 0.01163494 0.00379283 0.07475771 -0.00990348 0.03545359 0.01406255 -0.03535160 0.03766765 -0.05411005 0.01548440 -0.00098963 -0.00916311 0.01332720 0.01005555 0.03899860 -0.02057747 -0.01006892 -0.00638323 0.00216639 0.03201816 0.02422900 -0.03785347 0.00548915 0.03002897 -0.00079605 0.00387700 -0.04113198 0.02475627 -0.01342429 0.01800967 -0.00046926 -0.00635481 -0.03004945 -0.02682277 0.01874296 -0.00928661 0.02776680 -0.03303941 -0.02156084 0.01439769 0.05958304 0.00905625 -0.03783154 0.03077237 0.06123673 0.00083207 0.00565258 0.01007150 -0.04488612 -0.00360093 -0.05007401 -0.00449531 -0.01290567 -0.01236850 0.06037896 -0.03877882 -0.02171709
0.06169084 0.20902882 0.11357262 -0.37465066 0.61800574 0.61781746 0.54128337 -0.25826616 -0.38744232 -0.12285864 0.36715080 0.19013423 0.07199141 0.07096564 0.05149154 0.36118641 -0.26145813 -0.50130796 0.19507369 0.39009480 -0.10570064 0.22367445 -0.30461509 0.04072622 0.08530288 -0.19123022 -0.56910124 -0.11002760 0.27651149 0.22672742 0.04110912 0.05584561 0.21552409 -0.08985624 0.18992059 -0.22704835 0.33904190 0.01990442 -0.26822369 0.04064505 0.01806521 0.32496427 0.05963313 -0.16585459 -0.04979390 0.01234247 -0.40372824 -0.33736225 -0.04694736 -0.21613130 0.31150416 -0.08683719 -0.34507973 -0.02133978 -0.02907722 -0.12048671 0.24297625 -0.10885637 0.10014312 0.24234341 -0.20432642 0.30494093 -0.00137693 0.41731436 0.17494634 -1.17459883 -0.12316587 -0.14077411 0.08378941 0.04081686 -0.15966618 -0.34106114 -0.01212793 -0.02848256 0.10669347 -0.20391693 -0.06482117 0.23357036 0.01018466 -0.45271593 0.21765452 -0.07941120 0.05486542 0.53676621 -0.33708257 0.06960114 0.00698669 -0.37245707 -0.05263625 0.48954848 0.00355978 0.06317557 -0.13844212 -0.20325110 0.18278074 -0.12999163 0.00121131 0.02945876 -0.03923269 0.08563113 -0.08648691 0.01542789 0.05812299 -0.02542561 0.02128475 -0.00806907 -0.00455487 0.01837604 -0.00532881 0.01089454 -0.00604790 0.01801869 -0.05332035 -0.00645804 -0.03431152 0.00866560 -0.03531147 0.00782032 -0.01210219 -0.01965661 -0.03194575 -0.06907953 0.02583955 -0.00117555 0.00652755 -0.00494731 0.03363151 -0.01224950 -0.00697009 -0.03232860 0.02670177 -0.00894519 0.02785952 0.05387340 0.02481748 0.00680908 -0.01325704 -0.00701166 -0.01957438 0.05348913 -0.01511312 0.04389778 0.11703367 0.03730098 -0.02967505 0.00933779 -0.00581357 0.00261527 0.00368383 0.02524640 -0.01479556 0.05960198 0.00049741 -0.01047897 -0.02523695 -0.01300941 -0.01977522 0.04927731 0.02990643 -0.01956105 0.06520838 -0.03793993 0.01720833 -0.02183649 -0.01545950 0.00169630 -0.00265418 0.03105192 -0.00276636 0.05396391 0.01546161 0.04576522 -0.02869172 -0.06001871 0.00368432 -0.00138319 0.02785720 0.02335980 -0.08684715 -0.04397169 -0.01134394 -0.04345955 0.00864344 0.02198973 -0.01214228 0.00899415 0.01164985 -0.02327525 -0.01847440 0.00712354 -0.04172734 0.00571829
0.35566316 -0.00167931 0.90611219 0.17611003 -0.04614733 0.27598231 -0.47883371 -0.14466619 -0.49404648 0.22209840 -0.12535548 0.12160717 0.13316981 -0.04847334 -0.25235900 -0.22416366 0.43753615 0.18707432 0.05373827 0.05080640 0.30821388 0.27116567 0.03783868 -0.28464977 -0.51582566 -0.13992729 0.43757281 -0.16985134 -0.22152067 -0.02847800 0.11412198 0.36991485 0.15253610 0.19509222 -0.31340599 -0.32543236 0.19961889 0.37973955 0.39630757 0.29991624 0.22141788 0.01147518 -0.00188763 -0.37156659 -0.37435647 0.40983725 0.26693321 0.16640952 -0.02083988 0.00496945 0.00408438 -0.01010995 0.01609211 -0.56371488 0.22298010 -0.01041545 0.11550094 -0.12069949 0.02310354 0.01662494 -0.39398281 -0.17595532 -0.02398638 -0.72551340 0.38799203 -0.77240148 -0.08455522 -0.50649166 -0.55262088 0.18583078 -0.10120583 0.17690684 0.04184111 -0.03932040 -0.30400983 -0.17627106 -0.00165564 -0.18319804 -0.07326901 0.29477964 -0.00842441 0.05108059 -0.05527721 0.10164394 0.19084921 -0.04255529 0.32945494 0.36548187 0.07178940 0.02925998 -0.43067888 -0.11831063 0.09231606 -0.06211387 -0.09898328 0.33859491 0.03141449 -0.05407735 -0.01094491 -0.01560206 -0.00480810 -0.04370995 0.01838907 -0.00244413 -0.02321361 -0.01951555 -0.01143595 0.05075015 -0.00143870 -0.01871555 -0.01233604 -0.03680672 -0.02587091 -0.00064972 -0.05172871 0.01395860 -0.00635419 0.00081670 0.03596618 -0.03015022 0.02575950 0.00592144 -0.04778056 -0.02017779 -0.01420101 0.02957347 -0.00656382 0.02627131 -0.01222857 0.05297133 0.02031033 -0.07128799 0.01835901 -0.05077549 -0.01121001 -0.00255756 -0.01986620 -0.01165248 -0.01008985 0.00561386 0.02310860 -0.02997825 0.03267152 0.02672532 0.06469410 -0.00445003 0.02274287 -0.00753109 -0.04165957 -0.02269101 0.00865436 -0.03343563 -0.09083247 -0.00621993 -0.00790056 0.00944752 -0.02903958 0.03402618 -0.04166317 -0.06733737 0.06003900 0.02864092 -0.02686559 -0.02890036 0.03689920 0.01737634 0.02149118 -0.02307689 -0.00616659 -0.01571292 -0.00950187 -0.03961947 0.02871139 0.00609798 -0.03161765 -0.06461902 0.00839029 -0.01068991 -0.02643650 -0.00204227 0.03753958 -0.00115690 0.02118827 0.01193871 -0.02643116 -0.02780841 -0.00755769 0.03194084 -0.01273306 0.00630246 0.02433780 0.04159891
0.29248212 0.48701206 1.05321594 0.35045653 -0.57090266 0.54180958 -0.11986443 -0.13281778 -0.30855043 0.20597924 -0.02568727 -0.05653806 0.04423646 -0.41948609 -0.41140801 0.02106292 -0.01200283 -0.28269309 0.21369510 0.72905146 0.27061939 0.20277357 -0.34854935 -0.12052017 0.62343409 -0.18355292 -0.86423616 -0.33973489 0.20212683 0.39000605 0.08394260 0.43443740 0.06721788 0.84557471 -0.02001715 -0.34305891 0.18440374 -0.01264702 0.83214386 -0.28787476 0.74355104 0.12730891 0.14012852 -0.66685366 -0.29860599 -0.18936030 -0.12059028 0.33657894 -0.34647498 0.20821237 -0.12129230 0.09838832 -0.47320296 -0.31521177 -0.04077185 -0.58414132 0.26422326 -0.46036231 0.22380688 0.28199964 -0.50497720 -0.40478080 0.26143228 -0.30824275 0.10938507 0.15481671 -0.25094506 0.00737821 -0.39228516 -0.02847757 0.57081805 -0.29657897 -0.42545653 0.13683376 -0.04063790 0.48387023 -0.37202971 0.04762766 -0.27862083 0.39116457 -0.51997237 0.39589226 0.09844862 0.07184144 0.11337159 0.39942885 -0.47784335 -0.15559925 0.13506874 -0.31729487 -0.76131568 -0.02397388 0.51374277 0.19838642 -0.50548825 -0.04785678 -0.00550538 -0.02542179 -0.01843261 -0.06664308 0.04207747 0.06916902 -0.01095416 -0.00119110 -0.03020685 0.02775801 -0.04814605 -0.00725418 0.02630021 -0.03034523 0.01040422 0.00559067 0.02771805 -0.03960182 -0.00174114 -0.00864282 -0.04265524 0.01054157 0.01497764 0.00083361 0.00567341 -0.00654087 0.03924990 -0.02860953 -0.03103020 0.04484510 -0.01877912 0.01203434 -0.04005953 0.05520215 0.02648026 0.03747752 0.00305386 0.02546777 0.01592289 -0.04157181 -0.05343815 -0.06258040 0.01870297 0.01188081 0.03339397 -0.03861448 -0.01877365 -0.00762130 0.00969816 0.00097182 0.03235146 0.03152091 -0.05111923 -0.00531265 0.03932804 0.02468044 0.03851209 -0.01689357 0.02932411 -0.01731248 -0.02870374 0.00783086 -0.03147507 -0.00929709 0.01221162 -0.10523298 0.02059626 -0.02485126 -0.00317968 0.00239733 -0.03174786 -0.00130353 0.00502380 0.00291707 0.00566622 -0.01069104 0.00117469 -0.00293674 -0.02266693 -0.01722198 -0.01161786 0.00323108 -0.00916326 -0.03539032 -0.01049309 0.01529259 -0.03479575 0.00957072 -0.00670443 -0.04367714 -0.01312532 -0.01612862 0.00503644 0.00550453 -0.00159761 0.01690017