0.10599227 0.14439693 -0.10700198 3.78599185 0.08148402 0.19010530 0.16881722 3.33729544 -0.05112440 3.66705880 3.52960875 -0.03781592 0.03320540 -0.04640856 3.42609282 3.67306038 0.08805410 3.41839847 -0.06758891 3.46242194 3.74905977 3.67929418 3.57864958 3.47499669 -0.42270934 1.75211158 1.45218963 3.61468678 1.62308671 1.75626474 -0.03693228 5.27993024 1.98728014 3.41147018 5.44402767 1.70302205 0.03345540 1.87327467 5.52710191 3.66871851 1.51276897 5.25744757 -0.08424359 5.34942378 5.53490457 3.64626526 5.40449982 5.74260646 2.44781471 -0.26006803 1.77096134 5.19664662 -0.04804977 1.74068601 2.01088591 3.78225654 1.80434476 5.42501653 3.68321829 1.88466128 2.07026863 0.15803068 5.27198975 5.60813943 -0.14615552 5.29871996 1.80547953 3.71529469 5.36160205 5.11847382 3.70394355 5.40871909 1.84045227 1.95224735 -0.21942271 5.24150378 1.87614831 0.13869215 1.51717632 5.28327368 -0.12525349 5.13412159 5.11420706 -0.11877038 1.62187168 1.96669344 3.45398560 5.13005307 1.73477472 3.35279109 1.89295886 5.42166791 3.62887104 5.52073865 5.17199421 3.56875502 0.00103309 -0.02219487 0.15713857 3.60832067 0.04281509 0.40073112 0.18091245 3.59173079 0.00720894 3.57921073 3.75902369 0.06304802 0.08533008 -0.34782346 3.29539444 3.82066808 0.01729674 3.15525791 -0.27182019 3.41418839 3.49535005 3.83337578 3.56663144 3.17556815 -0.13605630 1.80310931 1.45413976 3.63238519 1.60557423 2.01174319 0.10355294 5.33420233 2.22598758 3.46859491 5.39912746 2.01245060 -0.00400490 1.92180526 5.23109287 3.90519921 1.41305921 5.24364034 -0.02995336 5.10483197 5.32810867 3.60123804 5.26632298 5.50329810 2.25758343 -0.42999544 1.92775494 4.94216591 0.12886177 1.81718714 1.84289954 3.82556946 2.12007035 5.64964688 3.57879881 1.91073158 1.91415300 0.31257487 5.07628457 5.75799655 0.06122090 5.16678346 1.75287635 3.91957814 5.16984016 5.17943753 3.89471677 5.19728600 1.83864048 1.95305686 0.02604662 5.00262625 2.12346573 0.14109351 1.62218537 5.06675897 -0.07164123 5.25795375 5.25267870 0.11857882 1.83609841 2.24094963 3.38253667 4.82148848 1.81087901 3.22063238 2.17322413 5.50508966 3.43926790 5.26238041 5.29522319 3.40756681
0.04220341 -0.15692114 0.18963371 3.50001045 -0.13611157 -0.30152678 -0.14718784 3.79846395 -0.11617117 3.43113482 3.47260121 -0.25056944 0.00345841 -0.05300823 3.23022294 3.68730122 0.35797331 3.39261551 0.10245228 3.47119254 3.75577523 4.01530643 3.58462191 3.58448921 0.09173337 1.96725098 1.90073149 3.39495238 1.69855447 1.77531763 0.11743173 5.53000105 1.76077293 3.25996432 5.42771584 1.74896554 -0.10885983 1.80365056 5.16101328 3.45767310 1.73610292 5.29395683 -0.19113989 5.33111039 5.85416491 3.55440288 5.13963392 5.26011104 1.96830633 0.01357042 1.91437093 5.59139583 0.40362889 1.60112705 1.89359677 3.46265548 1.83337225 5.12333423 3.21158683 1.84877996 1.66761874 -0.11575751 5.68142343 5.46461982 -0.09640715 5.59043915 1.62729822 3.47532195 5.62867305 4.98058753 3.35758951 5.38701261 1.72556952 1.88034617 0.21027334 5.18607298 1.88564907 0.07603205 1.73907861 5.59494200 0.01337793 5.36179812 5.17608406 0.13139934 1.55535225 1.73669302 3.52072044 5.61207494 1.78323165 3.35709942 1.48462477 5.62772521 3.37025916 5.39719686 5.49235051 3.96075517 -0.07751773 0.05409030 0.31732992 3.33134142 0.06162544 -0.13202786 -0.35696349 3.82744136 0.06472683 3.18333414 3.54582352 -0.22565786 0.13568295 0.10469249 2.93489404 3.94765056 0.27747440 3.21892608 0.19992393 3.38490002 3.43481588 4.26930202 3.69171035 3.51896304 0.31724819 2.11995625 1.94531424 3.47497284 1.94514412 1.83714768 0.33015516 5.72280158 1.80682287 3.50588730 5.64155254 1.90639876 -0.10614561 1.80863238 4.88854588 3.25189974 1.64137732 5.11008146 -0.29035997 5.43366147 5.65533495 3.35892203 4.96690824 5.11375491 2.07249011 -0.08487175 2.20236877 5.35367008 0.23050416 1.61836743 1.99802317 3.38190498 2.09528399 5.18764951 3.20724226 2.08753747 1.88033537 -0.00524045 5.60450505 5.38456529 -0.17072233 5.34173600 1.39745676 3.67333561 5.53535102 5.06045600 3.33316773 5.09930045 1.64412953 2.09504473 0.45217822 5.07651726 1.96904368 0.30941317 1.66989719 5.39566308 0.12495630 5.36765516 5.17933809 0.37037004 1.33233636 1.63070207 3.34409899 5.53948316 1.69535181 3.11805845 1.79808745 5.54566629 3.29251085 5.43977511 5.44939356 3.69518349
0.10197434 -0.35208269 -0.10270884 3.28018963 0.19374396 -0.16491897 0.24742090 3.50588815 -0.04798226 3.49458296 3.62338893 -0.18854539 0.03825414 -0.14159035 3.59425315 3.53352889 -0.13461946 3.22647096 0.24127909 3.32925761 3.53697929 3.34700977 3.64154453 3.40200780 -0.22362461 1.55905713 1.88176589 3.60193197 1.95765839 1.83955752 -0.26015730 5.57474367 1.74599909 3.50089019 5.12114496 2.00182759 0.06382486 1.82346333 5.48679204 3.54781180 1.79260769 5.45202124 0.01014907 5.19751363 5.35393567 3.36792369 5.28782959 5.67473951 2.09064982 -0.12053854 1.94215384 5.12211443 0.11038023 2.04991410 1.69055643 3.28118542 1.97324723 5.31259392 3.44054861 1.85273797 2.03479230 0.23852033 5.54210129 5.16597634 0.04849819 5.49195708 1.72628514 3.60098256 5.31263754 5.43529523 3.53085668 5.71498920 1.58430188 1.83818246 -0.06854284 5.05402195 1.83326066 0.03805098 1.67257741 5.22074724 -0.06341986 5.26059952 5.39474380 0.34534845 1.85467462 1.99159744 3.37966355 5.16052861 1.50554161 3.46945111 1.84476378 5.27164056 3.59976289 5.51667073 5.67748199 3.48310714 0.23665344 -0.51123147 0.20020288 3.29144383 0.03156545 0.14051246 0.43076267 3.29815810 0.12115313 3.68680223 3.78605240 -0.17934398 -0.11813494 0.13201953 3.54290333 3.76261501 -0.18397164 3.13064028 0.43975464 3.04634812 3.52397011 3.40339103 3.45692353 3.20358895 -0.25321655 1.33967653 2.01450420 3.35824513 1.82749141 1.94195080 -0.39655761 5.87348539 1.79948938 3.34592535 4.99499395 2.11982162 -0.18115001 1.96194287 5.29292175 3.52359404 1.84729980 5.13248075 0.02253703 5.01340297 5.17937150 3.31787574 5.47042979 5.42758984 2.26572180 -0.17019220 2.14868606 5.07217967 0.21164853 2.31233374 1.61490046 3.52033007 2.13234398 5.19223229 3.32956515 2.06527273 2.06243655 0.42178957 5.30457986 5.49636922 0.10193837 5.40132586 1.88648635 3.49715377 5.04544649 5.39752656 3.50862698 5.44991890 1.51625807 1.61787417 0.17721009 5.09160041 1.68117965 0.22717065 1.49593434 5.04766833 0.01788467 5.24362193 5.36854414 0.65071612 1.98668940 1.76310773 3.35496056 5.20462644 1.31648083 3.29152691 1.84939651 5.33749815 3.32897350 5.47945015 5.51535195 3.29591059
0.16671724 0.00537391 0.20540619 3.54033847 0.02477429 -0.05647165 0.14953322 3.47718589 0.20879560 3.74216419 3.49920506 0.29227775 0.26370067 -0.09260506 3.42707576 3.58231208 -0.12481041 3.55918576 0.08920080 3.64527006 3.55191103 3.32509789 3.70720160 3.50529542 -0.04873095 1.80092284 1.93288097 3.57959049 1.83683325 1.75597453 0.06796728 5.39725555 1.50330569 3.66129362 5.37160809 1.83148800 -0.09486227 1.79402691 5.23932954 3.60564209 1.59096556 5.51206474 0.23260828 5.32547415 5.41150329 3.26232348 5.12678800 5.36462644 1.75198519 -0.16389569 1.90475693 5.28102574 0.15536148 1.86687277 1.89853883 3.45698361 2.01562237 5.14120395 3.56280495 1.85677446 1.46772333 -0.55704575 5.65736355 5.42718879 -0.00005912 5.41574040 1.59256446 3.66342741 5.43588808 5.35517420 3.61823903 5.87759942 1.92920455 1.86315856 0.08710215 5.25953098 1.83313202 -0.20610156 1.76165697 5.21145990 -0.05890185 5.40665020 5.37302376 -0.30741737 1.66564522 1.89354083 3.25338545 5.33262911 1.62474719 3.66087185 1.82515416 5.28800674 3.70782161 5.26972110 5.21883536 3.70963688 0.11991453 0.03794303 0.53853062 3.35718442 -0.14795800 -0.02669612 0.01967169 3.32715430 0.37239182 3.39602157 3.43074931 0.33593303 0.19908619 -0.25025125 3.10993767 3.60431658 -0.27092142 3.29256018 -0.15495770 3.49260351 3.40201097 3.43535854 3.55691374 3.26002355 0.13566117 1.92911091 2.12115518 3.40741152 1.78805324 2.02126225 0.27016652 5.27302211 1.64122851 3.78366538 5.31297096 2.13116802 0.13223942 1.64892949 5.15225469 3.57702522 1.76626687 5.33890157 0.15855848 5.35085735 5.16974616 3.47167935 5.38206218 5.28320706 1.78599877 -0.15107937 2.26627822 5.20253827 0.03940693 2.13115822 1.85132350 3.54947784 2.22432285 5.44154384 3.56038318 1.99184465 1.55294550 -0.51603898 5.34048843 5.54406623 -0.10967583 5.11693795 1.36686856 3.56463385 5.27823519 5.14016534 3.82587604 5.85036132 1.75174665 2.09399504 0.16100683 5.34951730 1.54881027 -0.09593160 1.73578396 5.23941453 0.29640861 5.32870925 5.43805995 -0.07674185 1.43251393 1.83026651 3.15036514 5.54895770 1.41753871 3.45999218 1.60517475 5.25950338 3.48668125 5.26481636 5.20642938 3.39002948
-0.09433256 -0.01575705 -0.24770141 3.64590285 -0.38716243 -0.13408452 0.21047088 3.68600801 -0.21906572 3.62338500 3.40710790 0.05510313 0.09306490 -0.16346264 3.67405523 3.81614257 -0.07371421 3.29372814 -0.20953337 3.40893442 3.59201537 3.50020832 3.19593539 3.43603772 0.01349857 1.65939808 1.50376542 3.63418797 1.44166471 1.81513898 -0.19245054 5.55731707 1.81212842 3.53273616 5.66411251 1.73312420 -0.16708885 1.82303015 5.18086568 3.24763602 1.88868176 5.24340793 -0.28241622 5.42507753 5.34976804 3.57353097 5.31800812 5.36476903 1.73446788 -0.07472900 1.73321751 5.14224316 0.14796365 1.91338631 1.95525123 3.53730702 1.66737395 5.31566043 3.48393489 2.03693108 1.58424073 0.00262338 5.30391420 5.43959043 0.08178347 5.31976039 1.31101703 3.77514684 5.55916411 5.12867877 3.33068735 5.41612263 1.44062929 1.83513204 -0.13445312 5.28176616 1.47652300 -0.00787200 1.71131586 5.41001199 -0.27929078 5.26173230 5.19936444 0.12977729 1.68592985 1.65967964 3.50146544 5.03174313 1.62984297 3.42349663 1.58936498 5.27293403 3.25752368 5.33487628 5.47655957 3.30462663 0.09790104 0.19251510 -0.04283062 3.92464894 -0.54074522 -0.08172171 0.36452534 3.75878580 0.05649671 3.80245311 3.57296061 0.16919829 0.12218054 0.15285033 3.65811873 3.78304956 -0.19653734 3.09856257 -0.15241092 3.62155803 3.36086115 3.61552124 3.21034585 3.21973382 0.10639653 1.80064300 1.77716005 3.44196798 1.42928828 2.06662199 -0.01563193 5.30438280 1.89559555 3.49701959 5.56144585 1.98866166 -0.05985527 1.94728865 4.94917854 3.19327771 1.63719874 5.20821520 -0.13864070 5.24626115 5.27499477 3.67812502 5.12219627 5.28344467 1.77335451 -0.27607827 1.84956218 5.31778741 0.29735147 2.10168113 1.60043718 3.53102586 1.68898844 5.31410262 3.55924557 2.35006716 1.82519086 0.20520843 5.21429740 5.55618452 0.29286286 5.17776716 1.34422112 3.74443708 5.22001212 4.78832053 3.23349010 5.33695935 1.32850907 2.02293253 0.14445397 5.55488185 1.59786316 0.05769944 1.70735890 5.40404147 -0.01808894 5.21858263 5.07984062 0.45214696 1.51429486 1.53477031 3.38941559 5.25346652 1.45109010 3.40615197 1.66598852 5.50972089 3.23731733 5.34070394 5.26668879 3.03102567
-0.17849200 0.09642675 0.09328697 3.54974347 0.12748451 -0.01752794 0.07829604 3.31641068 0.06925396 3.33805310 3.25046379 -0.14176895 -0.03907594 0.14242526 3.40133605 3.48103454 0.04086682 3.19165419 -0.33488186 3.34897761 3.41944943 3.34810394 3.31609304 3.53809808 0.11886791 1.57652347 1.51915720 3.60082341 2.08067876 1.69742050 0.01298000 5.04034517 1.71306720 3.32767863 5.13533281 1.98221969 0.24678748 1.87710420 5.43198797 3.62008034 1.71199178 5.05078809 -0.12977977 5.15874509 5.25575351 3.09476802 5.36196566 5.33028905 1.97025992 0.20875713 2.23729830 5.02445012 0.27202649 1.69440871 1.76775198 3.76368812 1.65055517 5.35917689 3.72434058 1.56017562 2.09658445 -0.23255052 5.20349131 5.41213446 -0.00493835 5.34761726 1.90475031 3.77395323 5.26415208 5.32568385 3.51215595 5.29039215 1.62395935 1.93382043 -0.15491481 5.47107841 1.73115615 -0.00793288 1.80531225 5.27138762 -0.12081769 5.61963332 5.13063769 -0.00355300 1.80731775 1.71818168 3.50600835 5.24684596 1.58035901 3.55507249 1.94617238 5.18366605 3.23717226 5.43103446 5.49754312 3.60779672 -0.37299304 0.02098235 0.26836409 3.64121282 0.22773843 0.31619984 0.10962256 3.01130422 0.13241047 3.24046357 3.03210330 0.00615168 -0.09629818 0.29055224 3.17401408 3.57057195 -0.00101525 2.91117808 -0.45060754 3.34985972 3.20885072 3.40142589 3.27945132 3.24492356 0.29909005 1.65319464 1.80697574 3.59867602 1.87190784 1.86180820 -0.08878185 4.81586002 1.92019187 3.64447672 4.95730109 2.03715843 0.24353121 2.00420399 5.21377255 3.58498510 1.78747474 4.80267244 -0.40599967 5.23325532 5.21404598 2.96926693 5.13057350 5.31786268 1.96598558 0.29779791 2.46726647 5.04705329 -0.02732487 1.76656063 1.84645265 3.83541821 1.97689524 5.18944685 3.71764892 1.79236604 2.01379079 -0.01663224 4.95374078 5.31258344 0.02367165 5.06171708 1.95280017 3.85420260 4.93426554 5.14909887 3.60296770 5.05692961 1.76325637 2.14431923 0.04957269 5.48594688 1.78485225 0.33523256 1.84044149 5.29721297 0.12081042 5.84886903 5.24665576 0.15129738 1.67107969 1.51889151 3.33135304 5.12616797 1.61070594 3.35659626 1.92804089 5.05216266 2.91539229 5.66289826 5.66613262 3.43560171
-0.48640124 -0.03784037 -0.34256137 3.63511507 0.04572818 0.25033667 0.05306558 3.44849028 -0.00774046 3.66772284 3.35617014 0.14498548 -0.04296577 0.12309039 3.14852559 3.13728138 -0.10919034 3.56914411 -0.10666254 3.53632192 3.69368524 3.32468172 3.50444966 3.42386111 -0.05663926 1.82412000 1.66695318 3.71713295 2.01462281 1.71633244 -0.10197064 5.13021219 1.99267876 3.50274142 5.26907578 1.92056753 -0.12904590 1.86317369 5.33572897 3.47110926 2.02997139 5.56422744 -0.10993852 5.51362390 5.52308891 3.52861775 5.18860185 5.10175441 1.77677305 0.31420751 1.94321292 5.41209935 -0.01564165 1.86308208 1.63987563 3.84568862 1.76971589 5.55720246 3.64850678 1.48850085 1.91209214 -0.22965316 5.20540685 5.30484658 0.25317411 5.42366596 1.78867224 3.52500783 5.34713014 5.41129702 3.65568781 5.46338864 1.75134084 1.67292094 0.11716919 5.25022965 1.58699802 -0.31214982 1.65405481 5.30594563 -0.00120923 5.49857089 5.30334368 -0.28595253 1.79041611 2.10565938 3.35990414 4.90406316 2.17197619 3.80410747 1.89307432 5.16630162 3.60912378 5.14220302 5.21056604 3.28054938 -0.37951226 -0.16342095 -0.04807819 3.57884067 0.28185305 0.51007604 0.09270051 3.65425682 0.29445016 3.55497450 3.47518377 0.33715785 0.24752648 0.33899980 3.13194504 3.14670999 0.04224965 3.30776987 0.16562329 3.48670509 3.56875775 3.17996053 3.36658564 3.23589277 -0.10277083 1.76411765 1.96739323 3.72098556 1.78585855 1.84191067 0.01780264 5.19345482 2.30837509 3.54350338 5.21918004 2.24280126 0.04689072 2.11604465 5.21240009 3.49946756 2.01920494 5.32529997 -0.11848502 5.54362842 5.23261709 3.34166762 5.26204399 4.96072728 1.67478658 0.49676535 2.05360745 5.41521727 -0.03438320 2.19490086 1.87656281 3.87899021 1.82846870 5.55911400 3.65314396 1.78087517 1.97337335 -0.28119523 4.88598266 5.16187373 0.08350510 5.35502420 1.98194899 3.49222773 5.13520035 5.52498414 3.48921376 5.30726841 1.86644296 1.82277588 0.36588358 4.94359684 1.71290286 -0.18380055 1.79223389 5.37158955 0.20538713 5.55428747 5.63317833 -0.28573710 1.68838659 2.14918770 3.15048694 5.21002031 2.06963602 3.63776953 1.96597230 5.40122009 3.53784942 5.09919171 5.32859547 3.08480563
0.04138533 0.19125063 -0.51589725 3.44980990 0.24286447 0.28335756 -0.13109386 3.65216085 -0.15329193 3.49631365 3.28658013 0.02725532 -0.13044615 -0.19752105 3.30359365 3.53298549 0.01787094 3.66653111 -0.31270186 3.47343421 3.49911242 3.89520133 3.48907346 3.46379571 0.25994200 2.19900214 1.76706291 3.65185964 1.62055758 1.98462981 -0.16594154 5.23722219 1.63120266 3.76471262 5.32388935 1.69305183 -0.02479119 1.80736573 5.12562620 3.34592791 1.57162488 5.18372275 -0.09295409 5.68066748 5.51606811 3.40902161 5.29766154 5.57623227 2.14791899 -0.02342302 1.95788705 5.06196369 -0.04552930 2.04279969 1.52987363 3.44773674 1.82136905 5.24618487 3.60780345 1.83999600 1.93547381 0.02521153 5.35759736 5.37881798 0.04445965 5.15018300 1.74216956 3.73124207 5.23291396 5.30420226 3.71977173 5.14225925 2.13224242 1.78902638 0.05345923 5.23293865 2.11260944 -0.28312857 1.78616143 5.31774137 -0.06574023 5.21586624 5.05506159 -0.28922608 1.49655942 1.70273349 3.71156374 5.08228698 1.60413705 3.17857761 1.58717201 5.00686866 3.49618144 5.25025594 5.32210070 3.19312992 -0.06194301 0.18032327 -0.20177330 3.39073979 0.22694855 0.57988489 0.09031574 3.47926807 -0.03037631 3.60382116 3.22359856 0.30915001 0.04167112 -0.43398279 3.12948108 3.75979433 0.02643103 3.45135267 -0.09997923 3.39765678 3.36898831 4.23476718 3.52752233 3.38486855 0.00083616 2.32755046 1.93746110 3.89833264 1.79790845 2.12065652 -0.20667609 5.11253565 1.88220841 4.04747366 5.42460779 1.88576324 -0.22055695 1.91830401 4.94393080 3.04497190 1.60525750 4.98669397 -0.18928481 5.58548190 5.22677430 3.45841383 5.18576637 5.25419262 2.19352868 -0.22953787 2.12326722 4.72095807 -0.01359521 2.13208283 1.62157212 3.46681357 2.09848796 5.17612614 3.25872972 1.86200047 2.08902222 -0.20066065 5.31735722 5.59320043 0.04131002 5.00293201 1.76093821 3.71559589 4.94678826 5.24462202 3.63888996 4.89383400 2.10967783 1.49493433 0.10367195 5.39307418 2.40552010 -0.16863020 1.54616705 5.37919475 -0.06228896 5.04105749 5.17597279 -0.12489565 1.51164565 1.68634803 3.44392771 5.14071305 1.36582947 2.92833814 1.48589139 5.07219489 3.27833907 5.42395377 5.55725415 3.09736151
0.09608201 -0.01005589 0.05323795 3.28678002 0.03760019 -0.05863934 0.00510155 3.38276774 0.09945461 3.53067536 3.52885470 -0.17691098 -0.38190101 0.19124010 3.48814762 3.77598620 -0.15351135 3.57261810 0.12778653 3.67006298 3.46379316 3.71915351 3.71417186 3.54159134 0.02613605 1.61949992 1.52861996 3.59316669 1.76239096 1.85562423 -0.33962272 5.35699120 1.82250981 3.52600238 5.39980258 1.58096282 -0.15423466 1.96751458 5.39647400 3.77401674 1.62062010 5.51081261 -0.12955371 5.40915137 5.12748146 3.58403128 5.45003930 5.52698981 1.87675226 0.11372049 1.78564618 5.40024901 -0.02039667 1.82147595 1.71316321 3.66006882 1.79979192 5.31993563 3.70923019 1.98464930 1.58332828 0.02149513 5.46408868 5.31271375 0.23397557 5.50044162 1.50802387 3.53867612 5.21417356 5.34511694 3.46459808 5.41249705 1.18196892 1.84180488 -0.21622964 5.64500266 1.94317408 0.09301646 2.09644547 5.59530709 -0.42445268 5.44413988 5.28759885 -0.07065480 1.45750666 1.89802257 3.46788902 5.16064621 1.82227200 3.46741402 1.75844110 5.46929098 3.44020697 5.42787071 5.24381180 3.62933886 -0.19740690 -0.04365000 0.21459562 3.32918579 -0.21941025 0.16652986 0.06247317 3.42487860 0.37392747 3.70815015 3.67105347 -0.04856480 -0.30918696 0.51485360 3.40220470 3.63642190 -0.31879885 3.27644909 0.08116758 3.51449203 3.24583724 3.89673984 3.53512492 3.43345143 0.14910615 1.79254230 1.66738329 3.57300793 1.52775744 1.93750800 -0.53107106 5.61275443 1.92660919 3.50768024 5.62193785 1.78927029 -0.13174259 1.90969382 5.06558176 3.89194809 1.51789950 5.29672537 -0.05056983 5.31280688 4.82128992 3.68642740 5.50066246 5.31520382 1.87786113 0.11227824 2.07781506 5.67106444 0.11810621 1.92328283 1.68729926 3.55608059 2.04411270 5.30516907 3.71739789 2.27049165 1.30793015 0.07839738 5.36730666 5.24858460 0.39874827 5.29060372 1.67649032 3.79327841 5.14442560 5.37730032 3.70639998 5.17346857 1.11748838 1.93479089 0.13055837 5.64419073 1.77223129 0.37320586 2.09991930 5.61053815 -0.16299360 5.63124566 5.47739811 -0.03606779 1.27352999 1.99411754 3.17337300 5.21766634 1.72778047 3.23833362 1.97225446 5.73643064 3.37677634 5.51939642 5.33442139 3.32085921
0.01643960 0.29486280 0.13545743 3.44643033 -0.19959344 0.04539256 0.04036391 3.19360876 -0.06706544 3.28169744 3.33737595 0.30006601 -0.05133150 0.00716031 3.84365508 3.58780102 -0.26371409 3.66716613 0.16275884 3.79049211 3.53385687 3.29112959 3.43252609 3.57994214 0.16026669 1.81477268 1.68135998 3.60823819 1.71479569 1.70144837 -0.08496296 5.44191959 1.60637696 3.26978089 5.34946669 1.35453005 -0.12827370 1.58786641 5.30580034 3.50412306 1.79213544 5.37363838 -0.30065777 5.28473205 5.48520782 3.29326220 5.39224631 5.29196243 1.78965894 0.02822874 1.82189417 5.57575855 0.31479233 1.76177228 1.95339734 3.52105812 1.93327630 5.17833956 3.77882170 1.93803483 1.99615316 0.19998616 5.47216337 5.54244093 -0.44183529 5.12925187 1.83364791 3.41586755 5.26933988 5.26390586 3.48538548 5.53978841 1.74421055 1.88176525 -0.08812872 5.07454658 1.64506340 -0.02332744 1.86372726 5.25567822 -0.24529648 5.25012177 4.85450753 -0.40633087 1.73697808 1.84370650 3.64589850 5.36391835 1.90908803 3.79111807 1.79791707 5.71307868 3.71522963 5.16932430 5.54437358 3.66399847 0.03663234 0.10803971 0.30752782 3.16430334 -0.28274535 0.12213181 0.00538439 3.21149315 0.17470103 3.25272916 3.38788390 0.55749004 0.13971838 0.22832358 3.79671403 3.73846768 -0.36026739 3.45343823 0.43864777 3.85035384 3.42447813 3.11615457 3.59938326 3.54445912 0.15299909 1.71556410 1.91187247 3.57588896 1.78390455 1.93182938 -0.09311710 5.45121437 1.85522513 3.29662890 5.37504266 1.58762984 0.06406190 1.76282560 5.21002937 3.57564458 1.68008103 5.13420524 -0.28822692 5.33384544 5.23408310 3.01833251 5.40808983 5.20631162 1.82343217 0.01999516 2.09591688 5.38743427 0.49556330 1.82889941 1.91762864 3.51809444 2.24895432 5.09435085 3.93959721 2.08528219 1.91270870 0.29675939 5.26548310 5.50806904 -0.41508244 4.81855341 2.06131004 3.31350022 5.16370946 5.10610087 3.28565758 5.36706051 1.53934435 1.79188771 0.11213205 5.13235834 1.71085932 0.30292432 1.87672271 5.26625182 0.03747453 5.24972267 4.85323088 -0.13951454 1.78670598 2.03398769 3.38424541 5.47427891 1.95406538 3.55176427 1.80543408 5.73081341 3.34995297 5.24880502 5.28584524 3.53147467
0.43092862 0.08911799 -0.19954794 3.23234187 -0.07689467 -0.32447471 -0.17276164 3.57531024 -0.09711721 3.62315959 3.64147673 0.41024093 0.07499771 -0.22725370 3.61351457 3.52879854 -0.32787024 3.29360774 -0.24512377 3.74754418 3.46741580 3.42935059 3.82465746 3.60619087 -0.09020914 1.84653267 1.80560001 3.74670442 1.88255197 1.76988363 -0.08126425 5.40543003 2.02129145 3.76538886 5.09105130 1.48767397 -0.30443558 1.92187365 5.72894672 3.69728122 1.97651074 5.29433248 -0.02640322 5.07797548 5.27265251 3.50132575 5.29786360 5.58373120 1.83535224 -0.07883158 1.62954327 5.00000691 0.12599521 1.89808867 1.73057213 3.40928544 1.83985205 5.44028008 3.83872915 1.66301229 1.82703226 0.14030734 5.32863960 5.24491648 0.03340772 5.42734175 1.57432057 3.42163745 5.50509414 5.39493494 3.60431719 5.18177842 1.85300361 1.82227722 0.11659577 5.54728102 1.74832584 0.05706387 1.76544316 5.46728764 0.06857258 5.56447983 5.32145492 -0.19755186 1.90342782 1.64611752 3.23847824 5.25352545 1.71037231 3.40783161 1.59419041 5.38712896 3.81315768 5.18014433 5.26280129 3.77400711 0.45625059 0.16199776 0.05766723 3.26939397 0.07334553 -0.13360872 -0.19997251 3.52977519 0.19931583 3.60089430 3.81034063 0.65500499 0.25663928 -0.32333294 3.46456236 3.38637455 -0.35048699 3.00375968 -0.07540048 3.60211344 3.25745671 3.39379051 3.86042838 3.37603466 -0.09819322 1.93720598 2.02750900 3.61108546 2.17328660 1.80340742 -0.12370646 5.16853889 2.26187872 3.66061107 5.23286092 1.80900067 -0.39123146 1.86288732 5.41831185 3.69724267 1.97665812 4.96813768 -0.05511751 5.19974199 4.95224663 3.63751605 5.35892249 5.35262718 1.78676948 -0.04777715 1.96934827 4.77625194 -0.07027913 1.93171226 1.67638400 3.61738723 2.00508310 5.49694665 3.71146169 1.88547462 1.89783940 -0.10793274 5.29500471 5.03227245 0.13397005 5.15919668 1.54813691 3.11122036 5.48116673 5.38063105 3.36600906 5.12632957 1.78806940 1.99890081 0.38466371 5.55233546 1.73567050 0.30311794 1.77149982 5.45252573 0.42157274 5.60372244 5.21808091 0.01717348 1.69701535 1.46228773 3.18680934 5.49289956 1.63286439 3.18401086 1.43238988 5.23119697 3.54678805 5.22897877 5.44440448 3.52568071
0.00920243 -0.18421151 -0.05632272 3.69934288 -0.04000946 0.07886900 -0.18233904 3.50648482 -0.00737706 3.68247777 3.66064738 -0.30469087 -0.47996366 -0.05103006 3.46912237 3.40029092 -0.28923120 3.64385897 0.35140699 3.25530397 3.39826858 3.52336695 3.34660292 3.44420607 0.13519988 2.02419615 1.69382914 3.44513590 1.54902209 1.70297067 0.16409687 5.20813959 1.77225260 3.59343784 5.23340826 1.72647801 0.17267243 1.92912855 5.16640616 3.60132961 1.52882613 5.14402178 0.08735245 5.27509489 5.44312579 3.53829649 5.12119674 5.44711310 1.75397008 0.03561074 1.84366478 5.48771332 -0.29812078 1.69683571 1.54542063 3.49711670 1.51349439 5.29498205 3.48009109 1.71706460 1.53247756 -0.05913623 5.41508214 5.26410208 0.01468572 5.48407344 2.36603717 3.54919012 5.59536314 5.46087154 3.40515688 5.47845701 1.93712502 1.68942506 0.08317433 5.34848298 1.78646558 0.07790767 1.59671887 5.31713674 0.00908175 5.01020006 5.37676614 0.18169794 1.50107453 1.55889090 3.88861269 5.60249822 2.01706667 3.47479373 1.57955838 5.17612272 3.58766296 5.33949242 5.27731805 3.71802256 -0.12595636 -0.17413668 0.27613328 3.53403442 -0.02267832 0.28928402 -0.39895816 3.40771830 0.25348475 3.47762055 3.82363608 -0.12183363 -0.61613598 -0.14317292 3.28575275 3.40240652 -0.18373460 3.39970025 0.52517811 3.08806583 3.20635243 3.74603144 3.43315623 3.21150081 0.02958537 2.12574269 2.01799485 3.38976402 1.28722376 1.85028361 0.05870682 5.19377449 2.09705554 3.58832673 5.14162592 1.96013335 -0.04247499 1.86209225 5.10521349 3.92648175 1.54855857 4.98654781 0.05957701 5.24565498 5.21108723 3.42503567 5.22496549 5.25099513 1.73415149 0.01205747 2.10711377 5.49944806 -0.28441552 1.96591743 1.34571537 3.60249316 1.60363268 5.07433346 3.65580997 1.72612804 1.51205127 -0.07747412 5.13449022 5.20015875 -0.10823947 5.26544075 2.42969711 3.53246217 5.32388459 5.28414361 3.26026113 5.26569732 1.69785057 1.83658157 0.12275027 5.33063267 1.80167420 0.42215274 1.51309531 5.51970373 0.16902736 5.15584191 5.20944859 0.28271380 1.31516743 1.64321978 3.64756726 5.45312400 1.86709378 3.23967570 1.44838834 5.09833362 3.39484211 5.44898003 5.46720475 3.50787969
0.03269041 0.09208027 -0.08267357 3.45496484 -0.07403954 -0.26882764 -0.07835712 3.42288784 -0.21136739 3.87789936 3.43827280 -0.28673269 0.15186395 -0.05180902 3.49527825 3.41607781 -0.28060646 3.44556194 -0.01925836 3.64046533 3.35317491 3.75863916 3.79711676 3.40652420 0.29947827 1.63929256 1.66369880 3.63981650 1.93714390 1.86264013 -0.07864499 5.34529128 1.85801119 3.44677720 5.51609602 1.74602075 0.02744118 1.70971587 5.65241648 3.86460329 1.61079202 5.69554890 0.09861830 5.19302395 5.09249743 3.68004219 5.32084425 5.36530177 1.85925051 0.21177428 1.95992624 5.20316270 0.21662440 1.70780837 1.75259808 3.11877606 1.91873336 5.18915370 3.42912392 1.83286837 1.64722652 -0.02012974 5.52193096 5.28359651 -0.03432281 5.20205575 1.47435979 3.57866622 5.28676787 5.33426872 3.72668021 5.41460083 1.93501301 1.84002942 -0.32830562 5.20339948 1.57551096 -0.11743008 1.67755756 5.63556445 0.07558836 5.38139601 5.57072031 -0.00316329 1.79538263 1.77619651 3.51275434 5.56541195 1.65988438 3.61392376 1.69173488 5.12128334 3.83203150 5.33756394 5.68411734 3.56536314 0.23724607 0.27827764 0.08064616 3.27145232 0.18596057 -0.23428348 -0.03642964 3.47681984 0.11980953 3.79348892 3.24278532 -0.11793891 0.16141951 -0.04785441 3.23256179 3.53440671 -0.21710302 3.15260957 -0.12544886 3.86166715 3.22618184 3.81447812 3.89220077 3.05908876 0.07273908 1.47843291 1.73721348 3.80483924 1.65740908 2.00991223 -0.02285573 5.29479423 2.10449371 3.39223752 5.52844507 2.04527019 0.02174259 1.71034609 5.38908305 3.60121544 1.36947443 5.69119736 -0.12655642 5.05503058 4.87812789 3.70301727 5.28036569 5.13278042 1.88669056 0.18655658 2.20773139 4.97153217 0.36245432 1.87045903 1.54143024 3.38687375 1.92983094 5.39742581 3.28206946 2.06960090 1.86637627 0.02437126 5.39593546 5.34466687 0.00690621 4.86661576 1.43677934 3.85372986 5.12305815 5.28636626 3.48434004 5.20118347 2.01408788 1.98373236 -0.03979537 5.21715694 1.60775821 0.18315504 1.75599747 5.68538297 0.37073804 5.38614663 5.57115331 0.29585481 1.82012646 1.82543912 3.14948891 5.75143244 1.90090272 3.46013943 1.64258297 5.20341034 3.48304504 5.24837337 5.67588829 3.26777131
-0.22270598 0.06789735 -0.30866010 3.50019571 -0.08156797 -0.13973974 0.08247611 3.61493318 -0.05984483 3.26733187 3.60547165 0.18997929 0.02042946 -0.26191507 3.73699093 3.59270366 0.24216951 3.38976568 -0.10935309 3.49584114 3.51063006 3.57346605 3.46725442 3.32489985 0.04913096 1.90569332 1.52585910 3.54940041 1.64943416 2.02658000 0.05526722 5.39984955 1.90676112 3.37993739 5.46857583 1.92849780 -0.22893283 1.84012477 5.26699379 3.52043059 1.84732812 5.31735627 -0.01164274 5.40106932 5.10865374 3.48722340 5.69885616 5.43783667 1.71773847 0.10367278 1.98236613 5.56899126 -0.03520868 1.80809771 1.60686375 3.59281673 2.18852147 5.28584969 3.68570051 1.79061322 1.89530759 0.11160609 5.85747770 5.45512624 -0.34562370 5.22130634 1.87562085 3.78335603 5.39584007 5.31689408 3.27878977 5.39443430 1.57177433 1.53294849 -0.16802201 5.45631943 1.95086320 -0.37299240 1.70036977 5.18358976 0.32160635 5.30456372 5.35603248 0.07750349 1.72887190 1.62512106 3.20264120 5.31527062 2.00325563 3.79396278 1.81166056 5.51803018 3.39678035 5.42829722 5.63033527 3.27747842 -0.39833689 0.24068470 -0.27997061 3.60033441 -0.17533455 0.06533790 -0.12824788 3.51389884 -0.00685825 3.45993313 3.39107673 0.26495906 -0.06031221 0.01103323 3.69418356 3.58021613 0.27138955 3.05682422 0.01990548 3.72189582 3.25869557 3.63036636 3.66048373 3.06933711 0.02140753 1.88561624 1.85088230 3.71976143 1.53003246 2.16816558 0.05621958 5.35318975 2.26034652 3.64103545 5.43433994 2.01931431 -0.28064277 1.57662335 5.13232464 3.46040782 1.74495384 5.00473000 -0.23223966 5.39348648 4.95696628 3.36401229 5.67193776 5.16701066 1.67900374 0.38135801 2.02717803 5.76068803 -0.09609786 1.96947245 1.51619245 3.72408219 2.44106606 5.36427386 3.97337439 2.00198993 1.66069519 -0.13654595 5.76177478 5.41741410 -0.31227208 4.96743260 1.78979300 3.72791829 5.08495063 5.09564432 3.56115052 5.39110994 1.59947048 1.54512764 0.14946135 5.52575480 1.81714200 -0.05855903 2.04039962 5.08137875 0.34264268 5.28497414 5.49416888 0.33500975 1.62393077 1.82972449 2.96378158 5.01936332 1.90153675 3.65440699 1.71524775 5.22320679 3.25939695 5.50175772 5.79792985 3.09048924