-250.36309218
-250.36823588
-250.01665096
-251.81332259
-250.40744981
-248.56379490
-250.65303230
-246.92377829
-252.37999868
-250.46396476
-252.08029741
-252.18354682
-252.07694362
-247.78724565
-253.06938884
-250.56936061
-256.26373022
-253.24797526
-250.35648378
-248.03640904
-256.11480011
-246.99297202
-251.85353027
-249.78299654
-256.08990760
-249.20868252
-252.43959592
-250.12812691
-251.39040080
-249.88250075
-253.63048594
-251.41188846
-248.58834484
-253.31108416
-247.99311633
-246.74452652
-253.54887257
-250.76808483
-251.24598367
-252.62704287
-246.46824047
-252.68565463
-242.28450346
-248.64262793
-252.99916979
-251.54415676
-248.69215078
-255.73427501
-254.92061518
-247.17770171
-252.66595273
-246.26747795
-252.98750455
-242.78612309
-248.47893174
-254.61707611
-252.56308610
-253.15302479
-248.72755912
-249.50493722
-254.01626524
-258.07285291
-254.60594121
