0.59276089 -1.42237378 1.22852113 -0.55717644 0.43327977 -5.96930299 -1.37452125 3.36993214 1.49054746 -2.82730908 -1.42946178 1.18018113 0.47301643 1.07421487 0.52876064 0.29700891 -1.60292150 4.71578082 0.28977619 0.21681295 -0.82512619 -0.99786012 0.24111535 1.02201376 5.64214611 0.03308117 5.00766068 -1.95138267 4.50333550 -0.06021675 1.88366972 0.15501951 -2.38667750 9.82457122 -13.23813946 -0.20701382 -1.14635513 -1.17040951 -3.37738724 1.10411043 2.34330736 0.26729533 1.02802137 -1.38927217 -1.86460964 -4.64210706 1.67438254 -5.14751088 -15.23816791 11.29755150 -0.48805987 4.00175074 -1.70245691 1.09342496 -2.54073913 -2.34146361 -0.62685598 -0.67251114 -0.77076230 -1.34814711 -2.78853814 -1.53752321 0.38693675 -2.31459457 2.30753534 -0.27550207 0.95380476 -0.93137215 -1.13473890 1.87635887 -3.30272595 -2.44140525 1.81285994 -1.78828491 2.10900386 -2.23500993 0.12365449 -4.46935787 1.88918268 1.08297746 1.65006715 5.85721176 2.55379111 5.46044233 1.15508350 -1.28447088 0.04048791 3.28776087 0.89545840 2.17243542 -0.59388422 -0.41389471 0.97644994 -2.08893760 2.02008336 1.29190282 0.09016941 0.11842847 -0.16719860 0.19071652 0.03957618 -0.23479346 0.01321995 -0.22812168 -0.01764259 0.09890654 -0.18101604 -0.05417702 -0.01196745 0.07953190 -0.02288917 -0.25183534 0.10720481 0.33335180 0.11028454 0.07012806 0.03533194 -0.12103957 0.06255232 0.17287996 -0.29394245 0.04972423 0.07337466 -0.05754526 0.02925055 -0.26232114 -0.04989063 -0.04859809 -0.06413408 -0.20875846 0.13093687 -0.90500014 0.00302518 -0.01808106 0.17781570 -0.07938572 0.08189430 -0.06750997 -0.05765020 0.29788854 0.23741926 0.07808097 0.13090880 0.25053588 0.55447770 0.41708080 -0.46114831 0.36395367 -0.25706055 -0.02102509 0.21302937 -0.00447527 -0.25686731 -0.17149490 0.13157271 0.00111764 0.12600387 -0.09907088 0.03396103 -0.06714830 -0.15698883 0.00550131 0.02871749 -0.05576052 0.02557181 -0.02583156 -0.18198052 0.18054436 -0.01687606 0.05885650 -0.04201500 0.52911625 -0.42835500 0.02891717 -0.04484952 0.05391295 0.03944819 -0.22044648 -0.21064310 -0.39904208 0.00178437 0.01304220 -0.06978589 0.39724854 -0.11014552 0.11824097 -0.15565133 -0.07565558 0.06464029 0.29454180 -0.15580783 0.13822028
-0.39276330 4.28304827 -1.01930820 2.06477024 1.27849440 2.29169299 1.03501107 -6.92004045 4.39290478 -0.33798441 0.91361557 3.85283572 -2.08990613 2.89835773 3.83585373 0.63430341 -2.51219661 2.68374485 -0.63016120 2.91095088 -0.95458101 -3.86584828 -0.03014899 -1.47841246 0.72719844 0.78463236 -2.91883050 1.10340612 1.46475815 -1.27521012 -2.19716413 -4.69410501 -0.73393856 3.48063641 -1.96067775 0.51644848 0.07559678 -1.35321863 2.78708812 -0.62039537 -1.07485882 -0.19251335 2.24846242 2.27954327 -7.77123565 -1.21086183 1.89029761 0.19318607 -1.52687468 1.95404716 -2.59463170 -3.67531260 -2.95833501 0.39599354 -0.42060741 1.91815673 0.57940532 1.45903701 3.73353986 -2.83190378 -0.96096714 3.37476422 -5.63765053 -1.07802378 1.85249500 -1.12217947 0.35836565 0.67530100 -2.45736673 4.76953218 0.73952291 0.24421909 -0.50984255 -1.35571368 -1.82103841 0.52824881 -0.34252818 -1.74473287 1.50275835 -5.19229162 2.04823537 -4.59842949 1.05912106 2.26675016 2.77228359 0.15475704 1.87080285 -2.52266254 -1.14450369 3.78928297 3.65550549 -4.23404402 4.99346975 0.22268887 -0.39274075 -2.18838046 0.20856777 -0.33370088 -0.14898139 0.13242404 -0.17538801 -0.12857605 0.22518810 -0.04306127 -0.15378505 0.21134035 -0.05687504 -0.02301990 -0.26757403 -0.37725882 0.60746589 -0.12889685 0.04341161 0.04447994 -0.10230637 0.07203389 0.22357446 -0.16153474 -0.13274325 -0.04045411 -0.29329539 -0.18886480 0.00839564 -0.03118400 -0.25736004 0.00693527 -0.18152344 -0.19642642 -0.04144138 -0.17275256 -0.19528279 -0.04343489 0.01930351 -0.00594364 0.00276742 0.07751097 0.01151659 -0.04610563 0.16552539 -0.24545924 0.36701987 0.07122979 0.03525297 -0.00880138 -0.10113196 0.22875660 -0.55067229 0.17677027 0.21174314 0.08110102 -0.03041196 0.06887259 0.02533544 -0.03032667 0.02301728 -0.07685214 -0.16590629 -0.07815613 0.06066174 0.04218760 0.00836974 0.05548619 0.14259011 -0.14321793 0.06217989 -0.15762977 0.04193561 0.40850084 0.09336217 -0.18014436 -0.14770838 0.02473976 -0.07872848 -0.04243411 0.16269674 0.30639846 -0.10000958 -0.04166169 -0.00064628 0.00613497 0.21112135 0.08841338 0.08564281 0.12493615 0.08531723 0.24843919 -0.28652814 0.10504421 0.10260962 0.04028321 -0.04468288 -0.12129977
-1.22777197 3.44020355 -0.05362228 5.23467573 -2.03636804 8.18093047 -3.11037121 1.16861114 2.59670143 0.12243299 -1.74286306 3.15820852 2.63530239 2.55815458 0.99728918 -1.02099889 0.98600267 8.09384829 -5.19127026 1.96799766 1.15743557 3.55699638 -1.30928337 4.21039545 1.84898096 0.69616945 -1.06799331 -0.77516030 -1.12839071 -1.40520006 3.41894966 -1.92869205 1.10586845 0.86884294 0.67681973 -3.88207150 -2.09096518 -1.58437498 -2.34421436 0.61156942 2.72742427 -3.32697631 -0.80648315 0.48726193 -1.04147822 2.26660346 1.56981849 -3.77002556 -5.40745517 0.98997724 -3.84896188 2.45521922 -1.50233364 -7.83927252 -0.62644226 5.03445412 -7.28172931 0.94899718 0.90261453 0.12722379 -6.40785054 -2.85656817 -7.68413255 1.10365296 -0.76327156 -0.56981308 0.88528625 -0.95622650 -0.39167146 -0.49022738 1.01985597 -2.43604198 2.00469051 -0.42012570 3.36696113 2.35066772 -0.96384330 0.94806030 0.96867162 0.71899526 2.20767337 -1.45320890 -0.55867384 -2.53340441 0.73084517 -7.44462177 5.09859864 1.05453742 4.36428497 4.57034821 -1.62670540 0.94222212 0.45978801 -2.83201138 -5.05523098 3.19727797 -0.22366960 0.20442015 -0.36929206 -0.03269935 0.45500281 -0.73213284 -0.25020475 0.26114284 -0.21903188 -0.19665026 -0.13421002 0.01791207 0.08148230 -0.16513459 -0.07053724 -0.39422441 0.12653585 0.18022687 -0.18967254 0.28750338 -0.01290063 -0.04860874 0.23000869 0.16551080 -0.05718000 -0.03105296 0.12586706 0.28864198 0.12755704 -0.03210166 0.13505347 -0.40983426 0.03296334 0.09065403 0.09726244 -0.03285598 0.27623921 -0.18799029 0.16124111 0.02489737 -0.04247824 0.41807477 -0.01608766 0.08033060 0.01797206 0.07911236 -0.19400328 0.24861510 -0.12674133 0.04266229 -0.10998127 0.09512576 -0.22859294 -0.36168494 0.15058875 -0.42360767 -0.15215168 -0.08574464 -0.01459513 0.08627322 -0.02434651 -0.36062509 0.37684541 -0.19656889 -0.02409758 -0.02104492 -0.24740421 0.19465704 0.38574606 0.04458563 -0.02676331 -0.00474960 0.08986911 0.33202981 -0.36020424 -0.03395899 0.08942016 -0.05128710 0.15246132 0.18326343 -0.01757122 -0.02932500 0.04623148 -0.03417554 -0.15394545 0.34462346 0.02388966 -0.05190252 0.14000413 0.13956926 0.00591537 -0.02771123 0.07902144 -0.03102815 0.19967941 0.05585090
-2.12235540 2.84628184 0.05346120 0.03828612 -1.31695083 0.84758700 -0.86298084 -0.76964801 -0.23120538 -3.64611036 1.37927461 -2.77622414 -3.15812313 0.18080861 2.37066777 -0.36145135 1.03746617 1.21292937 -1.51648871 0.00889685 0.16902664 3.59626086 -2.11811835 2.54782941 -1.15769109 0.14839540 -1.67528134 0.18967967 -2.16752593 1.35419089 -1.75647701 -1.64945993 2.76023393 -0.24792695 0.51485424 -0.76286579 1.36105993 -0.26781914 0.65773019 -1.95246861 1.36197424 -2.43142382 -11.70391870 -7.07118718 -2.34138785 4.80394509 0.84684813 0.87035808 2.57636919 0.98728980 -2.09458750 0.39668045 -1.30368874 -0.89666933 -1.90785822 3.21101308 -4.66324936 3.46873303 0.12576503 1.80624879 8.39131499 14.98697611 -4.34262269 0.01730898 -0.23466673 -1.01628398 0.98961807 -4.65832912 -0.79567354 0.52311981 -0.48056632 -5.97274770 -1.16910026 -0.67514826 -0.55392019 2.13522321 -3.18667484 3.53945864 2.79002083 -3.50642633 7.66211211 -0.54102585 2.28787857 3.69344389 1.38729586 -3.12076149 4.59846734 -0.44400549 1.36962504 0.04331845 -0.80099160 0.65733836 -3.44205986 0.68405749 0.57628514 -0.19086121 0.10930831 -0.04123267 -0.31886944 -0.03112765 0.01203488 0.05238360 0.02901550 0.07032480 0.03333758 0.67650087 0.14820865 -0.00833556 0.07896576 0.16905038 0.32602821 0.00239972 0.02157324 0.01866043 0.11269796 0.03879480 0.02465821 -0.15557095 0.16364918 0.26990584 -0.13688035 -0.10474495 -0.03995264 0.20307393 0.07403079 -0.23698093 -0.07346558 0.02260160 0.07493118 -0.08171344 0.02540418 -0.21020477 0.06571510 -0.02591045 -0.07875641 -0.00989857 -0.03846619 -0.07438046 0.19171557 -0.07968677 0.51641482 -0.32973803 -0.35549868 0.11351864 -0.07258680 -0.05259808 -0.54162949 0.04449404 0.01372077 -0.01901799 -0.01503969 -0.14058954 -0.18769585 -0.28848214 -0.02188097 -0.06795593 -0.27710770 -0.11300042 1.01256190 -0.06921044 0.08246498 0.25030901 0.23943135 0.13992836 0.18792584 0.29210457 -0.33212171 0.07210573 0.00393984 -0.04243193 0.03585288 -0.12641340 0.38526437 -0.16217150 0.09077863 -0.01786595 -0.84819177 0.02293681 -0.00620910 -0.15476940 0.14919615 0.11054264 0.09762456 -0.13689465 0.15593198 0.09217531 0.38541001 0.02997034 0.24682135 0.03065080 -0.01304936 -0.09147820
0.82335683 -0.63009431 2.90861051 -1.17586994 3.95642114 -0.54152102 -11.04048542 -0.95107279 11.75702923 -0.89086292 0.22527385 0.18692077 -0.76691131 1.94662232 -1.64520319 -7.98455629 -1.55019251 9.35999770 1.54202374 0.91554600 -0.59549487 -1.33958029 3.19935845 0.70724238 -0.52709305 0.60480682 2.45672999 -5.67239754 5.22999997 -4.18081037 1.78829232 -1.42317067 -2.16075404 -1.40927911 -5.20861986 -0.74067826 0.57078774 -0.25405716 0.08737682 0.58775457 -0.90099180 0.64408879 -0.29438312 -1.85300806 -1.29565785 0.06604463 -1.51496388 -2.25027603 -0.69042029 0.88456695 -0.33269701 9.09851484 -2.95949834 -6.69535547 -1.28959237 -0.12963030 0.38664729 -0.53000689 0.08528466 -2.89427777 2.24902530 0.06578577 -0.78615070 -3.27327035 -0.24953334 -1.72274579 10.47184959 -1.92111822 -13.36718036 0.57982981 1.10474017 -1.00140827 2.94737433 -1.45224211 0.36566231 -0.91727939 2.53838369 -0.07485763 0.88892409 1.60240338 3.39481076 1.00684755 -0.76784908 -0.58235640 -0.14111696 0.59051750 -0.57597797 4.28909390 2.74273840 4.16408360 1.37778134 -0.87829276 1.76730710 -0.34439532 -3.04811387 3.25689577 -0.31166289 -0.34992121 -0.33338755 -0.34922060 0.17026757 -0.00393698 -0.42651665 -0.14534113 -0.77725081 -0.04964972 0.00084244 0.08294415 -0.02016463 -0.35979321 -0.03953246 0.06703856 0.18725919 0.32408383 -0.02631388 -0.11687363 0.09970966 -0.07775347 -0.03978563 0.02911088 -0.02634523 -0.03246332 -0.01269885 0.30792504 0.00435584 -0.33006244 -0.15400874 0.20127770 -0.03864352 0.02553752 0.09143912 -0.29655159 -0.10667848 -0.08648589 0.12872358 -0.02237728 0.00998265 -0.06828108 -0.02812579 0.12579103 -0.03438817 0.03045971 -0.08068504 -0.05374550 -0.03549472 0.04011108 0.07689038 -0.42801716 -0.39642644 -0.42671839 0.06480180 0.01740479 0.05172120 0.02819838 0.01218050 -0.14134908 -0.23811150 -0.18769945 0.04248206 -0.09069323 -0.21166581 0.05990220 -0.03024866 0.12066066 0.85743823 0.29517146 0.10812597 0.02126675 0.15571898 -0.22936342 -0.33280042 -0.18037418 -0.06022909 0.02960446 0.00414182 -0.02557167 -0.18986791 0.08631084 0.06652794 -0.25928965 -0.02495122 -0.02563657 -0.04696484 -0.41244764 0.33366533 -0.01760049 -0.00240734 0.03943370 -0.04578196 -0.00497888 0.34288846 0.43349264
1.81808154 -3.59675794 -1.96679199 -0.60963649 -0.54123278 0.10074615 -1.82143457 3.77054945 -1.41897932 2.99073071 2.11831679 -0.21601583 -0.14746033 -1.31264621 1.17095281 7.40538100 -1.29704562 6.91412466 1.27456345 0.33395299 0.68082744 2.42438072 1.66713449 0.29416986 -0.11389981 1.53024320 3.83296073 -0.39451663 -1.04477996 -0.30947316 -0.28188493 3.53464415 1.11013623 8.32751480 1.61512515 -6.43206184 -2.55876419 -1.50748680 -3.56494546 -0.05297941 -0.60121520 2.65858205 1.45624400 0.81046562 -0.08214728 10.98240432 -3.61116502 -0.89872175 -7.47980946 -2.50044766 -9.95420147 2.54935767 -2.12498781 -0.31834200 -1.20737642 -5.36678799 -0.88382954 -1.79270240 -2.36666008 2.13723071 -6.47019350 8.14839333 -0.75909790 -0.33616254 -0.36778895 -0.04739889 -4.19914852 -4.58578009 -1.25629665 -0.40207461 -0.39202323 -0.06146169 4.07962356 -3.77749769 1.27620053 -2.37395044 1.63368640 -1.63619244 -1.70175926 1.12369922 3.01420383 -2.26909193 2.40642933 -1.38165214 -2.23268286 4.04405928 2.40201662 1.17558181 1.28762973 -0.42916781 -7.03790184 1.79848335 7.16628263 -1.00043342 -0.82850947 -1.14165705 0.15389473 0.07395165 0.00512147 -0.02450435 -0.04466624 -0.05509708 -0.03831061 0.50686791 -0.00481462 0.11001990 0.14550510 -0.00284619 -0.01343261 0.00963767 -0.00491664 -0.19179600 0.07813191 0.63355193 -0.07386583 0.00847310 -0.10943582 -0.02698813 0.01933250 0.27281128 -0.33266363 -0.14826840 -0.41330759 0.01310668 0.11850346 -0.00987395 0.12863065 0.28124681 -0.17364071 -0.73111124 0.39249219 -0.17046908 -0.00784421 -0.00256078 -0.00229484 -0.00172941 -0.04436397 0.06855628 0.09015584 0.01023742 -0.02925749 0.24414122 0.51273149 -0.05669619 0.00103493 -0.23259968 -0.40715356 -0.01886169 0.28321901 -0.02314370 -0.13922415 -0.19589751 -0.64152856 0.15728018 -0.04039354 -0.08587925 0.10036403 -0.37046465 0.41338463 0.01355289 0.01065095 0.02803019 -0.07365544 -0.19682218 0.51485813 0.02016555 0.00270455 -0.00647313 -0.24549293 -0.41893699 -0.31470351 -0.04971096 -0.10955065 -0.44768958 -0.03794743 -0.03149448 -0.05436038 -0.11781034 -0.08979143 0.00869548 0.16751798 0.26582350 0.17083947 0.03885959 0.01338206 -0.00018504 0.10540185 0.33388402 0.79810656 -0.10306740 -0.01596991 -0.05947886
9.04685502 2.60375098 8.65286487 -1.38224093 -1.39616110 -1.00901250 1.01982549 0.67494507 -1.33711571 -1.37121906 3.43354471 -0.87315769 0.74083278 -0.37885879 4.71927196 4.19015852 2.27460875 -1.08266778 0.14085411 0.10934341 -0.43170127 1.58223567 1.72087046 0.61713651 -0.66662137 0.38807508 0.55599811 -0.26792954 -2.31144112 1.11432100 1.51938728 3.25114979 -1.42055243 -0.44445631 0.85295482 -2.94730327 2.58021075 -0.39249418 -1.64258143 -1.56639697 -1.94820580 -2.44246642 4.06343421 -3.33641008 -6.85189375 1.20384597 0.10249439 2.39669357 0.23197315 -1.81271131 -2.10177146 -2.50418305 0.54524738 -1.37448621 0.93824857 -2.22819914 -0.76205043 -2.69946520 -1.62823054 1.43191028 -2.00484553 2.25497959 3.07234880 -5.75206653 -4.55899472 -10.57129823 -0.68698136 0.39082146 0.85517636 -0.97801439 -0.91032896 -1.42905957 -0.10061319 0.15211762 -1.10855573 -0.37839033 6.69653333 6.71929320 0.92602296 0.68318253 0.01438264 -5.81411611 -1.06184994 4.96405153 -1.81362464 -2.55482287 1.13922667 2.83159355 -2.68680608 -1.58312608 -3.45172272 0.86461889 -0.34463707 0.86740919 0.20627636 3.06076151 -0.32289619 0.30910408 -0.71984467 -0.01420107 -0.13155890 -0.03652710 -0.04515097 -0.35632721 -0.42797596 0.04516748 -0.11519139 -0.10499642 -0.28355804 -0.23039589 0.03539256 -0.04176944 -0.15716929 0.25736799 -0.08037134 0.02920342 0.03245928 0.22505429 0.19836941 0.21533992 0.06364934 0.05198006 -0.07687362 -0.04123453 0.09679750 0.04118037 -0.11812266 -0.07404394 -0.41752406 -0.07224414 0.06818165 -0.27219255 -0.12195997 -0.28366119 0.04256156 -0.01989403 0.02924004 0.07342287 0.08714457 0.02707721 0.36244835 -0.00014158 0.00404831 -0.13629915 0.07447164 -0.02824113 -0.00790886 0.01357107 0.07160534 -0.22185032 -0.12581331 0.01057975 0.03564847 0.00276430 -0.01153657 -0.20324698 -0.03837624 0.05103480 0.16476032 0.18056215 0.23988276 0.18351526 -0.05344018 0.03288324 0.04367953 -0.04128174 0.15212269 0.04341587 -0.03272571 -0.03568789 0.02494635 0.84626368 -0.39716203 -0.33942830 0.12738248 0.07696699 0.11962878 -0.12436449 -0.63764958 -0.01903778 0.05568464 -0.00428338 -0.00329012 -0.29717112 0.04213540 0.04564827 -0.10806188 -0.24564534 -0.01812200 -0.00406717 -0.03414581 0.09056331
0.12928273 3.13605272 6.54167361 2.88434774 -3.59643679 -3.58859759 1.85125968 -0.60257752 -0.45099306 0.02802244 3.97209945 0.18376767 2.25495396 1.28964006 1.12035879 -1.45466468 -3.29668988 1.01984636 1.31308716 1.70686847 1.27119535 -5.16725911 1.02887721 1.85489085 -7.33069276 -8.97561844 -1.97414317 -6.92450547 4.22333957 -4.97438154 1.35303728 0.75032642 -0.95678771 -4.38577221 -1.33309404 -1.86503327 -1.14284732 0.90562967 0.96723859 2.55487309 3.68281462 0.72308968 1.19174019 -5.91040911 -3.97276373 0.84701806 0.47542593 -2.41418450 -4.67185808 -1.22571494 -0.13521483 3.84784505 -1.43126120 -6.42035144 7.93289566 6.64581644 -0.43913917 1.75193515 -2.39178902 -4.41424936 -1.75875394 -1.89301808 0.03953297 -1.88293814 0.33771432 0.23753473 -0.51020618 -1.58386673 0.61446428 0.07254723 -1.35600884 0.09246498 -5.91618009 0.02669883 -0.53347323 1.38677858 -2.94558384 0.82757374 -0.73046654 0.31062258 1.76394926 0.01909018 2.69030816 2.77539590 1.87983580 0.26333584 -1.82840803 8.77785340 3.37245345 8.14238491 0.62928144 1.93553783 -0.17291349 1.17045968 -0.21149316 5.96527247 0.08814141 -0.04339548 -0.35839532 0.09057873 -0.01277354 -0.35423632 -0.21553418 0.16714222 0.03672855 -0.12165415 0.09395973 -0.30333676 -0.15015106 0.15313119 0.06905993 -0.36654376 -0.02985264 0.33845292 -0.21440545 0.05548179 0.03253791 -0.50570202 -0.11223165 0.03813879 0.50448308 -0.26400563 -0.19509853 -0.65008567 -0.54328123 -0.35644404 -0.01743297 0.02698441 -0.00273508 -0.46436555 -0.13106639 -0.26330956 0.14448934 -0.09311610 0.06743462 0.49314957 -0.04986738 0.24919587 0.12227631 0.15197846 0.47166314 -0.10270557 0.18006597 0.33684049 -0.00057575 0.12474990 -0.01194557 0.92260960 -0.05678078 -0.21379258 -0.19467244 -0.01522632 -0.38920062 0.23748071 0.82204997 0.01208160 -0.17802938 0.20980030 -0.00725923 -0.03618405 -0.00899368 -0.05876229 -0.04501584 0.03094279 -0.00323676 0.13684956 0.11190919 0.17562338 0.00494601 0.37849027 0.08197951 -0.13849108 -0.26766535 -0.06012519 -0.04243053 -0.06513673 -0.01089204 0.10791938 -0.06259613 -0.10364372 -0.05709917 -0.01633386 0.08193810 -0.07598517 0.76706835 0.69917080 0.02469520 0.03939271 -0.15835812 -0.38109495 -0.54589843 0.22570303
-1.70136522 -3.24328225 -0.70095091 3.86849190 4.27148548 2.51320302 -0.69791754 9.12594806 0.66372952 -0.49857312 -0.59500039 1.06217886 2.84905845 -0.50552714 1.63976569 -1.49156461 0.85520075 0.42194945 -1.64931523 -0.56830320 -0.45420745 -2.59366061 -0.69801273 0.59472560 0.36825665 0.72404743 6.43963856 -0.93507716 0.89916195 -0.62406055 4.06848810 0.00138500 -0.89030558 0.16266763 -0.88016050 0.93178729 -1.25692969 -2.11679218 -5.89667431 -2.91428815 2.44740561 -1.40744618 1.35551291 0.01417248 2.12157584 4.73321729 -1.48265329 -5.35941091 -0.47985935 -0.53278255 0.39948887 -2.49495345 0.91103377 -2.32812096 1.20799637 -0.07206232 -0.92198678 -0.81304578 -2.11719539 -2.38400284 -0.33898785 2.83456149 -5.16096791 1.46714641 -2.70572134 -0.14471432 2.52431263 1.30227604 0.72297896 -1.00333212 1.89519538 -0.82839051 10.62396951 -1.85848443 1.48902710 -6.62821792 -1.93323827 0.53384573 -7.59849998 -6.80369502 5.94342186 -0.98927868 0.33410671 -0.25611757 2.15750046 -1.38241228 0.38771885 0.34283656 0.76362339 0.53222321 0.14794480 0.02934311 0.38264017 -1.79253323 1.08637663 0.57745819 0.39785872 0.05713284 -0.18630910 -0.08329091 0.42507250 -0.32534745 -0.12526643 -0.10281170 -0.41188389 0.15995959 0.11327976 0.09162486 -0.05777750 -0.32095736 0.02082790 0.10506004 0.13388043 0.14231832 0.08521612 0.17060032 0.15029269 0.02083246 -0.02015011 -0.04676136 -0.18261122 -0.26162475 -0.09005184 0.01961626 -0.07034901 0.10852771 0.32023649 -0.33774006 -0.07570487 0.02304047 -0.05068929 0.01980269 -0.05967556 0.12750398 0.73167311 -0.04679266 0.02394465 -0.00187990 -0.07107377 0.13058065 0.19022868 -0.01510316 -0.00431000 0.20288790 -0.03159196 0.00199156 -0.10357942 -0.30006645 -0.08753066 -0.10092598 0.01153742 -0.01486745 0.08294843 0.03598665 -0.02606703 -0.20603779 0.21445421 -0.06656382 0.09117159 0.03410813 -0.16610725 0.02811948 -0.05873656 -0.12180613 -0.10657241 -0.01316118 -0.29419100 0.22580939 0.15762169 -0.32157638 -0.94585756 0.00512569 0.29985202 -0.43397956 -0.05601950 -0.01057843 -0.45121871 -0.02233169 -0.01952244 0.01978735 0.11791700 -0.03862499 0.15041207 -0.03826873 0.03895847 0.00347417 -0.06592201 -0.06707402 -0.01648680 -0.13108444 -0.15853633 0.50814248
0.41406459 -2.30096336 -1.74725810 1.98807219 3.06453644 -1.13486800 -1.16544506 2.59565623 0.73004118 2.58417114 1.45622888 -3.24453163 2.67368673 0.29056230 -4.53004791 -0.31435645 5.14447203 -2.45412978 -1.33795313 -0.36801886 0.02797894 3.49608797 1.35302683 0.23264273 -0.68751454 1.17295522 2.74900178 -0.22758266 -0.99456047 2.50320213 0.21559316 -0.66168169 0.39932325 2.16484549 -0.97146448 4.84463419 0.68918524 1.82571745 0.61571349 1.14752781 0.06318099 -0.64432572 9.31600370 -3.71991057 -0.65895901 2.59318273 -2.23351441 0.44872563 -0.52151281 0.39403413 -0.14027287 -1.54068724 -1.88551147 1.71031573 -3.29483023 0.93090038 -0.35672237 0.65872689 -0.94184592 -0.37904767 -2.54035299 -0.71348847 -0.74852778 -6.00364062 9.46466792 7.73257316 -1.36404149 1.36791739 1.06543197 -0.74403928 -6.51293098 -6.71570991 0.54372245 -2.20065955 0.82593078 1.52996925 0.37236619 -0.33514553 -4.14391381 -0.48163783 1.03670665 -2.99622543 6.58265432 10.18123107 -0.69103094 -2.04624434 -1.03304827 -0.55703146 -0.24459779 -2.15614681 -2.60056276 -2.82352873 -1.71660302 0.71588156 -6.97831778 -7.10810829 -0.02911785 0.03485162 0.03173176 0.25743734 0.04695539 -0.01090160 0.02026685 -0.02545452 0.09634166 -0.02153001 -0.08454049 -0.17525806 -0.13365678 -0.19795585 -0.05687902 -0.19387110 0.10034315 0.17342400 0.13800047 0.04672750 -0.06747861 0.08038628 -0.04561026 -0.03138499 -0.00855486 0.03958872 0.04402486 0.00171744 0.00425867 0.04584994 0.01821834 0.02137695 0.32069183 -0.03173230 -0.03165793 -0.02189280 -0.09071901 -0.11673234 0.05204109 -0.06676658 0.12006139 0.13455779 -0.00806927 -0.05732475 0.31780891 0.37254590 -0.06508687 0.09135260 -0.00834838 0.01048164 0.04890676 0.00704606 0.02164714 0.02141091 0.05591363 0.03193847 -0.27909191 -0.09039298 0.15746388 0.16395731 0.09551571 -0.08231453 0.09091472 0.15701964 -0.09788039 0.80849040 -0.11800313 0.10459145 0.00570330 0.31272772 0.35715768 0.33773360 0.31668972 0.14918226 -0.22946654 -0.08071000 -0.04433846 -0.28264140 -0.01420044 -0.01924592 -0.14559704 -0.08301945 -0.05789705 -0.46399992 -0.01859139 -0.12019096 0.11249843 0.07879914 0.01818021 -0.15107483 0.02215458 -0.00850320 0.47693963 -0.12779680 0.34561946 0.06985642
-4.46168484 -0.63792226 1.70986694 4.59312707 2.84688859 3.62949206 1.79009892 1.67671088 3.57262701 -1.64853110 -6.90564070 -8.64993932 -1.79441572 3.83761292 0.25586022 -1.68803152 1.13228605 2.89867924 2.02769498 -3.42913314 0.07186844 -0.35801695 -1.41809734 -0.12008261 0.46086813 -0.88224301 0.62986058 -1.90950875 0.17941246 0.02857609 0.66357150 0.96574077 -3.10867276 -1.72878692 9.03641236 5.71769808 4.45779155 -2.53553440 -7.88099123 -0.94080772 -0.57986652 0.01351314 0.98753176 2.80227955 0.72463498 0.32751020 -2.00750227 -2.05243949 -0.33161950 0.35479057 2.15314350 3.67477131 -2.47925655 -3.02623842 -0.95705688 1.70548195 0.19352632 1.74669344 -2.71850744 1.67654544 -0.68048632 0.95534825 -4.19480516 0.43067322 -0.07432716 -0.77506400 2.32401908 0.01148210 -1.32575507 -2.61222362 -1.06004087 1.61028664 0.07909802 1.24554517 -0.44378063 -4.91131932 -0.87594678 3.98915852 -1.46645275 -4.29370862 -0.26685952 -1.36802388 1.59929301 1.47125211 -0.46984265 0.10253626 2.09218887 0.87133252 1.08837700 2.43149480 2.75878380 -1.43920530 -1.31604118 0.13324296 1.79673447 -1.70960356 -0.01478134 -0.07657628 -0.11170192 0.00184800 -0.18001715 -0.17321986 0.06303226 0.04979418 -0.47632468 0.04338313 -0.24037063 -0.35693159 -0.03503977 -0.05020085 -0.03251522 0.03750187 -0.01215606 0.18468485 -0.20039837 0.16259590 0.23491327 0.00096634 -0.01532691 -0.14595063 0.01576523 0.00234580 0.14047990 0.08809368 -0.31326064 -0.02056486 0.06838409 0.25354825 -0.21243446 0.26630675 -0.36141688 -0.71707161 0.13091658 0.06813094 0.51202784 0.00557075 -0.03509695 -0.11331087 0.05508982 -0.29112735 0.54760360 -0.01984918 0.01860491 0.03014840 0.00988899 -0.03822415 -0.20839920 0.09326669 0.13423560 -0.07814312 -0.04270606 -0.00032947 0.08863051 -0.06965715 0.16286071 -0.17274080 -0.00648596 0.15498226 0.01195948 0.14249873 -0.06419290 0.08466045 -0.00707931 0.04634052 -0.01218550 0.02530376 0.21893105 -0.04686740 0.03478254 -0.14305225 -0.13286497 -0.04057407 0.05489709 -0.25875195 -0.00215995 0.06589069 -0.38582213 -0.02318538 0.06989661 -0.01830854 -0.10088903 -0.02113573 -0.02545321 -0.15585835 0.01852624 0.05418816 0.22491035 0.19302861 0.22879610 -0.05478438 -0.22217386 0.17517115
-1.04644308 2.08069713 1.38793335 -2.51553872 0.91597483 -0.61955518 1.62845101 0.90601363 -1.02492525 5.41316552 -4.21383251 11.41811522 2.96010260 0.50917249 1.56757518 0.60175420 0.33169890 -0.58609415 -1.66593105 5.20134719 2.09217762 -0.45229626 0.65381391 -0.00402340 -2.05368843 -5.71384544 -1.06660501 1.24440945 1.06635676 1.80153128 -1.98992517 0.82521845 0.80401413 -2.09754172 -0.18394988 2.01164869 -4.21780581 -0.32718924 6.27042863 0.09483462 0.31720953 0.53463149 -1.37015370 -1.19728620 -1.86920148 2.14104661 7.70128738 -4.03742695 -0.63652422 -1.13649297 0.42052251 -1.12651293 2.16969602 0.79684080 5.61100648 1.37949729 0.34055546 -0.63584126 0.82054635 1.14256725 2.01172235 -0.72001193 -0.50975481 1.26626373 -0.79774068 -1.30869587 -12.20843467 -4.18486149 -7.49057804 -0.52755707 0.93290989 -3.06679277 -0.82441546 -0.27877027 -1.72283129 -0.44242327 -1.38673088 -0.25316472 2.00738605 0.07758416 0.43710915 4.30049100 -1.44448673 -2.76491986 6.51008272 -2.40457053 -5.25927897 -2.62595117 -1.37975365 0.53759931 1.31339282 1.03732770 0.56663640 -0.66712517 -1.55682920 -0.54603874 0.12671793 -0.01473442 -0.30501355 0.12221989 -0.06488343 -0.07126721 0.28569441 0.15539379 -0.33504929 0.54100671 -0.40269960 -0.57381888 0.01468138 0.02999136 -0.06619476 0.00485941 0.03497654 -0.15583250 -0.29742753 0.25896487 0.28407592 0.03904609 0.01002080 -0.06590444 0.18351532 -0.21109720 -0.57727332 -0.01388152 0.01887456 0.07217173 0.12251373 0.03950603 -0.29469065 0.02440703 0.00213528 0.01542819 0.16555518 0.05259595 -0.05455582 -0.28811779 -0.02302742 0.07115645 -0.01070239 0.00592084 -0.05127526 0.12080586 -0.04929814 0.08914288 -0.02563485 -0.01169285 0.11818732 0.00613100 -0.04265097 -0.07013692 0.11605383 -0.03623689 0.02390118 0.06970020 -0.05673170 0.06205936 -0.03184754 0.04424782 0.10549788 -0.00712164 0.00234583 -0.04408497 -0.17641691 0.11444746 0.43918220 0.15171002 0.12480542 0.21082628 0.02750286 -0.04461654 0.05639598 -0.03141938 -0.03087172 -0.23526424 0.03286297 -0.12367998 -0.10679385 -0.14998307 0.21115086 0.04901565 0.30141847 -0.17848293 0.34399087 0.15022304 0.12629718 0.15865319 0.02667904 0.00292295 -0.12986657 0.01364017 -0.01518555 -0.12731447
-0.96358087 -1.85171769 2.25515683 0.45317964 -1.83653873 3.84233356 0.02090791 2.12039393 4.10085949 -3.57271725 2.56224813 3.98348183 -0.39027850 0.83518698 0.38589351 0.16358267 2.65025251 2.74726011 -1.06026691 -1.67057736 0.26053047 -1.41504331 -0.66429968 2.41070561 -4.35450592 0.23427336 -0.23815494 -0.38434287 -2.02453147 -0.50050517 0.53327553 0.18747654 -1.25181441 0.41895645 -1.65079496 -1.95007277 -1.42221067 0.02929589 -5.19843695 -5.50403629 2.43238367 -10.33972233 -3.89856949 2.62144206 3.61907621 -1.62630327 -0.44362169 -0.14483566 0.48778918 -2.84378864 -3.13655180 0.84106795 -1.35668414 0.58442628 0.62100926 5.56270250 -2.84582118 2.88147713 1.56492595 -1.93942934 0.72145037 -0.09775459 -3.76511819 1.66590873 -0.60487486 0.66215564 3.71663331 -2.09263724 0.90119411 1.63899299 -0.67475493 -3.41228929 -0.23225615 0.68310027 3.19059601 6.39075450 0.96397876 6.02715250 -0.09040687 -3.40878718 1.02269485 0.47457813 -1.17381932 0.84250787 0.34611444 -0.31342725 4.60884055 -0.40063823 0.87498233 -0.22394623 3.25119946 1.74378131 -4.70016682 0.68827896 -2.35781446 -1.79800035 -0.31134634 -0.29632230 -0.23277673 0.30232069 -0.49413097 0.00253886 -0.04597787 -0.07654227 -0.27481529 0.05654031 0.07764730 -0.06976374 -0.00585042 -0.00624501 0.13613756 -0.08857668 -0.05867323 0.27492585 0.01612054 -0.12748386 0.03667855 -0.01002715 -0.09116791 0.32037618 0.17862682 0.19365414 0.06353342 -0.24044795 0.39203373 -0.09289933 -0.00549135 -0.02235069 0.21942974 0.06096314 0.02572823 -0.12623333 0.01442246 0.03352061 0.31970289 0.75346294 0.70604358 0.00594740 0.38223175 0.27260993 0.29037709 -0.07883934 0.03365552 0.06671306 -0.02672895 0.02447085 -0.10023993 0.18218072 -0.08696773 0.00949325 0.25156038 -0.36840743 -0.02174435 -0.14728147 0.11514244 -0.18054663 -0.20807067 -0.01738494 0.10310641 -0.10400072 -0.09202638 0.54830590 0.03303202 -0.40322979 0.20661480 0.05749652 0.25281309 0.31032832 -0.10308328 -0.19346925 -0.32363354 -0.10847376 -0.14075498 -0.62565265 -0.02287176 -0.00339002 -0.05931997 -0.01634789 -0.03862907 0.02423127 -0.04895970 0.01526275 0.44401830 -0.05991988 -0.10922723 -0.05682191 0.06794886 -0.14975234 0.55743842 0.14944023 0.02846250 0.25505126