-0.06545090 0.01689639 -0.12092629 3.62245367 -0.04044142 -0.11207768 -0.03371646 3.54418329 -0.04130823 3.60219289 3.60536689 0.00829849 0.01160156 0.14959727 3.51059929 3.49588211 0.04273152 3.51042146 0.02666465 3.43259484 3.58193836 3.54324048 3.52422545 3.35335395 -0.26764690 1.65436595 1.60364967 3.80347600 1.74169951 1.45720559 0.00612066 5.38787020 1.88584814 3.53436769 5.35882138 1.86921380 -0.16209412 1.90394543 5.39638671 3.68392186 1.86522625 5.48012386 0.00506260 5.30838340 5.37303942 3.58241234 5.23760652 5.37062637 1.89861445 -0.19866717 1.64116955 5.22384435 -0.04985350 1.65826838 1.82923278 3.86297505 1.63501068 5.32472168 3.55143587 1.89381666 1.72750753 -0.21861475 5.44125666 5.35745635 0.04574380 5.30761156 1.70862866 3.56923927 5.38787712 5.31425481 3.60039622 5.17290438 1.78182484 1.76614303 -0.04066734 5.29277872 1.84199024 -0.10911094 1.80770379 5.31246183 -0.13784754 5.31115400 5.22388164 -0.05166028 1.85938298 1.85652410 4.33177765 5.25445300 1.82510339 3.58602308 1.76658288 5.40473517 3.44233924 5.26914222 5.30792593 3.62727565 1.76263231 1.81532840 2.39030988 0.21527337 0.09489490 -0.06384848 3.88428891 0.02656147 -0.12536360 0.17213628 3.74094508 -0.01426484 3.81384635 3.73309619 -0.11135815 -0.29542416 0.17535492 3.40319894 3.22044379 -0.06783662 3.56515454 -0.31889206 3.53248699 3.55771138 3.23159750 3.52842506 3.24977464 -0.08469650 1.69308517 1.63511240 3.96542864 1.67684615 1.51594318 0.27291508 5.41463703 1.88197042 3.71226103 5.29771179 2.03837689 -0.26974611 1.75290505 5.30725632 3.47252504 1.85485658 5.38906155 -0.18829098 5.19375618 5.22055921 3.29605544 5.26426896 5.32735611 2.08155577 -0.20334750 1.69561687 5.41380118 0.12117998 1.66963370 2.00928512 3.85971875 1.71666460 5.58850692 3.59894209 1.94398055 1.55112471 -0.37387290 5.45371027 5.11317474 -0.00148111 5.27018251 1.59778837 3.42209454 5.24396159 5.07490737 3.69709572 5.13338454 1.57266128 1.64416186 0.08662680 5.45649319 1.87846695 -0.15522288 1.95517967 5.29017810 -0.04963541 5.59950886 5.24363707 0.01062370 1.83734794 1.84528994 4.34245315 5.04363659 1.67348492 3.46809654 1.60246548 5.39621800 3.22595135 4.98975428 5.33028893 3.45229907 1.70194273 1.78031208 2.36427345
-0.02222952 -0.15873303 -0.12413618 3.51838427 -0.12764522 -0.03915615 -0.06630173 3.64130882 0.00104034 3.56182022 3.57228511 -0.04956290 0.07854528 0.09562966 3.48331252 3.52095579 0.08412352 3.45996345 0.12644771 3.46413086 3.42971941 3.48799986 3.37836121 3.51042199 -0.33916220 1.82360778 1.54728954 3.83159407 1.74878074 1.54105805 -0.08929146 5.33547013 1.80428035 3.58831891 5.28937592 1.79208796 -0.13234917 1.77251891 5.35991714 3.74254899 1.75370891 5.37590877 -0.10569711 5.31618053 5.37572765 3.56544024 5.26510461 5.29001270 1.69957007 -0.29548592 1.63461105 5.20849892 -0.11945346 1.80134608 1.77141799 3.81896003 1.67632747 5.19161053 3.66588766 1.80532538 1.77763039 -0.21318038 5.34554248 5.27795831 -0.08833360 5.33923857 1.67389108 3.64847675 5.41557530 5.34651300 3.49567069 5.38331227 1.88115791 1.73758742 -0.33272902 5.36601410 1.76670208 -0.16749299 1.67264185 5.29670214 -0.02234844 5.36241278 5.32473762 -0.05752310 1.71003337 1.77177800 4.36058538 5.27267711 1.75951446 3.47200423 1.71714455 5.30174987 3.45629033 5.30198634 5.36988105 3.53929264 1.77635686 1.75728252 2.31388959 -0.13279101 -0.25281402 -0.39853751 3.35167794 0.02167792 -0.25838337 -0.19728022 3.77627385 -0.23308689 3.48358277 3.50690911 -0.35925433 0.01438237 0.06879775 3.82155075 3.55672435 0.07478119 3.76744448 0.25905229 3.32333361 3.68729578 3.50192052 3.34274012 3.82364234 -0.46190728 1.84494077 1.42455143 3.84378471 1.81983683 1.34642932 0.00195716 5.30905989 1.58867681 3.58195383 5.27801087 1.53813306 -0.18335087 1.70455337 5.57923086 3.74794823 1.76361592 5.59990035 -0.04062718 5.26301755 5.65043565 3.52453114 5.41372733 5.52579580 1.80159220 -0.26392590 1.47239242 5.23383449 -0.03200969 1.54558394 1.76542953 3.81457259 1.49646042 5.10667698 3.74345860 1.60174876 1.75026791 -0.16720552 5.55134156 5.16604961 -0.01824107 5.56548883 1.69770299 3.54453177 5.61395261 5.18233475 3.46554840 5.58328824 1.90221464 1.71673723 -0.04355895 5.36289668 1.78062716 -0.33311996 1.58220725 5.29321689 -0.16408403 5.21615526 5.35347207 -0.28907230 1.69675474 1.78075548 4.38163099 5.20022179 1.65677571 3.73809781 1.69107205 5.22372090 3.72889638 5.23598218 5.27872520 3.84123403 1.77881954 1.74713266 2.39652701
-0.00327635 0.18481494 0.04100969 3.57885539 -0.05204830 -0.01139532 0.12969682 3.50988681 -0.08058002 3.51665899 3.50513418 -0.08831086 -0.10279868 -0.03194646 3.50722884 3.66436023 -0.01061929 3.59405016 -0.12606647 3.60833600 3.52644261 3.67077599 3.56424692 3.48589802 -0.21412164 1.75494605 1.79622522 3.68724072 1.80213076 1.74402175 -0.07107773 5.37403871 1.57831655 3.51967594 5.20393643 1.82597017 -0.21460176 1.73480390 5.26158175 3.77275935 1.77487365 5.22820384 -0.07268578 5.28697944 5.36959965 3.61251307 5.34443667 5.41822851 1.79824665 -0.16740638 1.85969426 5.40315770 0.01019758 1.76784046 1.80975589 3.73207043 1.79287880 5.35699823 3.48882101 1.83351642 1.89220787 -0.26015104 5.15694582 5.35830165 -0.17323071 5.49047044 1.66850732 3.87010800 5.16627869 5.30476326 3.54563773 5.38667595 1.86303412 1.79853236 0.84851186 5.45457408 1.83241112 -0.15574709 1.82766333 5.36887945 -0.09135892 5.28532083 5.28944661 -0.01689716 1.79406726 1.84396996 3.36740486 5.33125644 1.72847497 3.40060826 1.91023140 5.28334120 3.40175088 5.31776062 5.23958402 3.63090262 1.79931087 1.80660675 5.84529177 -0.04040603 0.12948309 0.36069644 3.46462954 -0.05449061 0.27703018 -0.07095228 3.58258861 0.21563058 3.35257744 3.61374794 0.17203050 0.06443691 -0.19638619 3.30278623 3.73790321 -0.07650691 3.28696866 -0.00920350 3.56119932 3.27752572 3.82489621 3.52708755 3.21111838 -0.24767980 1.76376483 1.99560826 3.63765068 1.91051512 1.91603721 -0.17510394 5.56979904 1.77318054 3.44698562 5.31313305 2.08385133 -0.12872549 1.61195458 5.15894116 3.81872360 1.78860847 5.04399992 0.09143432 5.12068260 5.24293347 3.77200718 5.42017469 5.26077525 1.72414384 -0.11521758 2.06027013 5.26419874 0.03989866 2.02672160 1.63802620 3.66831228 1.90310668 5.27398811 3.42086320 2.05723121 1.87365443 -0.21717779 4.95987354 5.46363395 -0.25955818 5.30481293 1.74161709 3.85035952 4.98263720 5.42204133 3.52401164 5.17917452 1.85465747 1.80009483 0.87076179 5.45169430 1.85255418 0.11653547 1.58673943 5.25308853 0.02970812 5.12319139 5.32471008 0.23102236 1.59680920 1.74082165 3.49371211 5.37200297 1.72388303 3.25078805 1.96929543 5.29212132 3.25764954 5.54389531 5.21880368 3.43984564 1.76787539 1.81481992 5.91985216
0.10131119 0.07258071 -0.06264174 3.51791799 0.06289811 -0.11743080 -0.03969516 3.53647857 -0.11387534 3.52652609 3.44638284 -0.05241789 0.01217291 -0.06390810 3.62880102 3.49907745 -0.05069504 3.63326058 -0.05909906 3.53251447 3.53202833 3.53083790 3.60735532 3.57436080 -0.19147555 1.75927801 1.83649017 3.69189188 1.74992530 1.81132280 -0.11415231 5.30262565 1.68412866 3.51394903 5.28288984 1.75708459 -0.35186455 1.79143159 5.09082048 3.88197727 1.77988616 5.27551389 -0.05272726 5.28373943 5.41242355 3.67865134 5.22536890 5.29024917 1.78839597 -0.20716801 1.70923492 5.46009508 -0.02935485 1.86506023 1.70921674 3.75442069 1.87098749 5.41501848 3.47121270 1.89983611 1.81344515 -0.25324378 5.10365092 5.34060154 -0.02335534 5.29857273 1.71064446 3.85234030 5.20681904 5.43460343 3.60082613 5.45509915 1.72435010 1.76614988 0.65447576 5.42442782 1.74686160 -0.08650423 1.81370325 5.35923071 0.04211594 5.36317368 5.30264658 -0.01335008 1.80468561 1.78347510 3.38790870 5.28646028 1.77958329 3.32164147 1.80919769 5.30275625 3.40220436 5.22359791 5.26322418 3.44659715 1.76402002 1.76983351 5.81591221 0.14782377 -0.13083465 0.21263320 3.53455742 0.28883045 0.11192566 -0.02275629 3.54706811 0.23781711 3.47298183 3.54338301 0.26029925 0.13223659 -0.22493331 3.38314072 3.38674618 -0.06959299 3.35842563 -0.12666605 3.61985933 3.25367179 3.42170391 3.49267033 3.30182966 -0.33032388 1.81023723 1.99420478 3.66215704 1.70891620 2.00986288 -0.21936786 5.37534462 1.94754657 3.37559506 5.37360429 1.95827093 -0.43701884 1.83555864 4.93363207 3.92721310 1.79273880 5.07367229 0.06933881 5.28774622 5.16818275 3.65359244 5.24592224 5.04104004 1.80864761 -0.20592085 1.91875908 5.31742580 0.05577456 2.10621038 1.84472039 3.74867918 2.06045951 5.36483237 3.38037348 2.14024022 1.75866505 -0.29262708 4.90937624 5.24071928 0.06503254 5.09969487 1.71134064 3.83649907 4.99788447 5.44627015 3.44829293 5.28326214 1.72259496 1.76603644 0.68074777 5.41057971 1.75004303 0.19885018 1.80754224 5.36246883 0.30496687 5.57055049 5.26901390 0.27197257 1.86596463 1.74203282 3.64951263 5.32157583 1.75732019 3.15058684 1.91395519 5.34954313 3.25987315 5.26549809 5.31769588 3.16700694 1.80106088 1.80040954 5.87959027
0.11587332 -0.01789244 -0.11904447 3.53391879 0.09868781 -0.06399592 0.00922896 3.44952844 -0.11085944 3.52023459 3.37209530 -0.16942784 -0.05386801 0.03206641 3.54166152 3.57379126 -0.09830625 3.57303721 -0.04426106 3.59964695 3.51032052 3.61761233 3.59114595 3.60339645 -0.13834789 1.81970165 1.86845205 3.68905580 1.70710680 1.83574454 0.01438265 5.29874852 1.88875927 3.51452699 5.31699225 1.64865074 -0.22509244 1.64909915 5.17942950 3.80863604 1.79736559 5.28015749 0.08612179 5.22554909 5.32699594 3.60179735 5.39016500 5.38854871 1.66724288 -0.21544705 1.80143810 5.26551899 -0.06964502 1.79125162 1.76267990 3.68930687 1.91141099 5.22562478 3.60646030 1.79607210 1.73790689 -0.28288222 5.17797397 5.19986196 -0.04275685 5.28192966 1.69115439 3.75642153 5.30914767 5.30471020 3.62590808 5.40212108 1.78311096 1.73117012 0.82339247 5.36854029 1.81898837 0.01460034 1.76067673 5.36373317 -0.01205660 5.27635994 5.32841121 0.05591881 1.76435923 1.78587856 3.43968482 5.36063937 1.86491737 3.34542737 1.80559398 5.28117423 3.34113751 5.46377746 5.30355227 3.42673010 1.75094034 1.81067591 5.95088709 0.06614168 0.03083934 0.18258141 3.49220760 0.02095873 0.23675691 0.03921495 3.64004525 0.16757010 3.48505371 3.16635226 0.05104273 -0.06015578 0.03160632 3.21925708 3.57388884 -0.09732225 3.29068094 -0.03837455 3.59499623 3.21564396 3.73116166 3.61261502 3.35616686 -0.19932439 1.78554814 2.05591200 3.75948566 1.79229841 2.03583644 0.12688483 5.22460206 2.13145476 3.54839496 5.36985563 1.93119798 -0.15863966 1.69867903 4.99327567 3.66567433 1.83029051 5.13238908 0.07017641 5.22489833 5.08450102 3.64631606 5.35575295 5.15877702 1.78604414 -0.25151452 1.98377078 5.28904250 -0.17160507 2.01383768 1.80742522 3.72210450 2.12326731 5.42415511 3.57491653 1.99815765 1.63214428 -0.32635340 5.03264766 5.24212714 -0.06123056 5.01524653 1.83457882 3.74817216 5.16465325 5.33873245 3.53024051 5.18090705 1.77076865 1.73944183 0.84337001 5.19511835 1.70354766 0.24447043 1.62976924 5.30378841 0.20948851 5.35606662 5.36980543 0.37530679 1.78802980 1.61717337 3.62902224 5.34780750 1.86300133 3.16399729 1.82989282 5.37600966 3.18606057 5.33518261 5.22375513 3.18881780 1.76857735 1.83385688 6.03034185
0.10720646 0.04547961 -0.08884299 3.40989507 0.06617319 -0.06883821 0.13442089 3.58368823 -0.15892104 3.61238411 3.48845189 -0.05762270 -0.07430199 -0.04783287 3.52334351 3.68133929 -0.08284647 3.51299424 -0.04304221 3.55759705 3.59391364 3.62108103 3.61181097 3.55248346 -0.19657072 1.81835616 1.85707011 3.65112039 1.70295534 1.83305968 -0.11170587 5.29695718 1.79120609 3.56830785 5.34366835 1.79899250 -0.29174487 1.76070906 5.12477951 3.83193357 1.86074786 5.16451954 -0.05900412 5.30996881 5.42662873 3.56415847 5.32392754 5.39690276 1.78495997 -0.07678535 1.79968747 5.28305152 -0.06737316 1.73541740 1.68337230 3.70147061 1.89804831 5.33740690 3.53402332 1.74435673 1.77575150 -0.22608030 5.16047455 5.25515440 -0.02086195 5.32861306 1.80845923 3.83069908 5.14187727 5.39600607 3.55518744 5.31747681 1.92620989 1.74046260 0.84240461 5.31996822 1.72583291 -0.01477175 1.88060280 5.28320350 0.02285046 5.31945086 5.33233822 0.01876521 1.83803621 1.77932586 3.38613142 5.27365945 1.78661475 3.47052058 1.79743071 5.44516882 3.44197914 5.41123909 5.28372547 3.58051859 1.82840049 1.63644412 5.84886769 0.01819141 -0.13581831 0.13710317 3.40967953 0.19702335 0.25022435 0.25458387 3.46418298 0.13607756 3.67651671 3.58433346 0.23663603 0.01454946 -0.21082706 3.31009253 3.67462027 -0.08775568 3.20235653 -0.09438326 3.49087028 3.31121726 3.67386849 3.71983105 3.25495467 -0.20847846 1.80684472 2.08876728 3.56981724 1.60710613 2.02778655 -0.09330420 5.25107874 2.05442121 3.53687214 5.54004995 2.01059472 -0.29928947 1.77118941 4.94735713 3.78330261 1.90146994 4.97176710 -0.06542127 5.24163198 5.19341580 3.64436425 5.25193178 5.19783087 1.68097177 -0.12310806 2.00746040 5.20351987 -0.12396116 1.99566433 1.77068226 3.64025268 2.10118429 5.24616109 3.52205041 1.99711834 1.88329310 -0.16483895 5.02566862 5.27916817 -0.05250677 5.09765103 1.86070795 3.92676233 4.98599128 5.35648620 3.52069252 5.07443159 1.92922986 1.74704712 0.86889836 5.30841214 1.74460405 0.24197715 1.96099629 5.35926371 0.31367573 5.41665830 5.47183179 0.26145008 1.80115342 1.90349897 3.60687286 5.21714996 1.77886380 3.32376821 1.79663756 5.52336350 3.29444228 5.34419106 5.19187592 3.35247284 1.85602716 1.62646216 5.92144721
0.08250548 -0.01749644 -0.05544796 3.42376500 0.07219716 -0.06629324 0.14424502 3.41118573 -0.08203319 3.42649151 3.42566556 -0.21211312 0.03187045 -0.07745966 3.47753942 3.55497174 -0.13584138 3.49801123 -0.00475935 3.53952827 3.57219273 3.64903454 3.57137218 3.68205532 -0.07720388 1.75783880 1.74154862 3.74095150 1.76495760 1.80053479 -0.07589569 5.26532254 1.85197268 3.48626653 5.28780039 1.75073083 -0.33549429 1.68425474 5.20305244 3.90683822 1.74813720 5.15710460 -0.07259943 5.37864463 5.27423306 3.69867824 5.32394778 5.34320246 1.74085734 -0.18784260 1.85366131 5.36289023 0.00707445 1.81978895 1.75700190 3.71650009 1.80091316 5.28617122 3.65124370 1.89977942 1.89934672 -0.38818441 5.12378847 5.20727032 -0.07261054 5.34123909 1.78848041 3.98185805 5.13700646 5.33416802 3.66773958 5.44730344 1.70558490 1.82706924 0.74310876 5.30793157 1.75467818 -0.01604386 1.70692584 5.33610471 -0.02721351 5.28519741 5.32018100 -0.03049265 1.83219415 1.86172878 3.34505627 5.27406042 1.82366104 3.37684224 1.82533470 5.27013785 3.47339053 5.28825379 5.32813389 3.47910427 1.75280859 1.76503596 5.87249023 0.20017928 -0.06194559 0.22823084 3.31718181 0.15996619 0.24703898 0.19530193 3.20559095 0.16524423 3.38630550 3.41335936 0.11018497 -0.08276026 -0.19339193 3.20290154 3.55364967 -0.24832687 3.21561620 -0.10895235 3.42069569 3.29567731 3.63177140 3.58513408 3.36353761 -0.12253504 1.70534203 1.96688919 3.74726213 1.75497796 2.01399796 -0.07023351 5.35597127 2.12256982 3.39510077 5.24045556 1.99531637 -0.28228777 1.57383937 5.06593874 3.88248206 1.74141608 4.97449206 -0.08565844 5.24133362 5.08726444 3.76480985 5.37626531 5.11596867 1.66572327 -0.10894211 2.03984095 5.42771132 0.12153736 2.05566256 1.87206344 3.63610523 1.96430127 5.13454038 3.58468106 2.14782777 1.88732175 -0.52085141 4.97498095 5.18350834 -0.10876934 5.07792113 1.88109522 4.02090117 4.98360029 5.45330209 3.59285736 5.24516477 1.69179341 1.81486736 0.76417461 5.29356190 1.76648093 0.25426070 1.75516401 5.31961709 0.22972585 5.36723182 5.30738956 0.28741810 1.67991470 1.91649085 3.54907252 5.29555482 1.86307162 3.20422961 1.82251833 5.36563245 3.35369643 5.31304076 5.35837213 3.17961785 1.80962062 1.75334878 5.93127290
-0.00394302 0.02107668 -0.18276232 3.41370938 0.15576110 -0.12481929 0.16530105 3.63543995 -0.04592105 3.50002438 3.56605810 -0.00086887 -0.01538090 -0.03521956 3.52156407 3.55360646 -0.06259984 3.61957211 0.00442759 3.58669461 3.56637418 3.58389191 3.61269816 3.55117592 -0.21184541 1.71988425 1.70815010 3.75282203 1.82102269 1.83302819 0.01093346 5.41463225 1.82659312 3.53581745 5.34187347 1.77932718 -0.29764465 1.85325129 5.08725554 3.74646062 1.80118211 5.13008588 -0.20719429 5.36281103 5.43799477 3.54216549 5.35512857 5.29991742 1.83481372 -0.14274755 1.83114305 5.38067027 -0.03799444 1.72598584 1.83096840 3.56399034 1.88663428 5.35518695 3.56816821 1.67335526 1.85635489 -0.29493699 5.03378266 5.42379544 -0.10872400 5.36065192 1.75690982 3.73230928 5.10960820 5.30547072 3.63216863 5.42127789 1.75338254 1.72332714 0.69359287 5.34778753 1.71285644 -0.07953830 1.83300463 5.29305861 -0.04303023 5.31816940 5.37293252 0.00953075 1.71082683 1.68680190 3.40112161 5.33138352 1.80361466 3.38779663 1.82869658 5.39360591 3.42367814 5.37231182 5.28895938 3.48179621 1.83714188 1.72960335 5.88299174 0.17728401 0.10446059 0.07906042 3.26798353 0.15739859 0.14186238 0.15822846 3.79757784 0.24876344 3.67597504 3.52494673 0.31091916 -0.07718832 -0.10886165 3.22587391 3.46395710 -0.13089940 3.37488933 0.02091501 3.59587107 3.24220260 3.55517976 3.44925562 3.30435768 -0.21250301 1.80205065 1.90805718 3.71571340 1.73532186 2.03380241 -0.04442921 5.37639660 2.09702975 3.43464715 5.37401887 2.05540608 -0.31243114 1.92823178 4.92975577 3.80909853 1.89477148 4.95814230 -0.20637308 5.34494696 5.19899964 3.53999740 5.35772215 5.06648981 1.82417683 -0.12909880 2.06194453 5.49029434 -0.17132444 1.95695927 1.79841995 3.59544404 2.08420984 5.32713299 3.56971467 1.94663895 1.96205941 -0.30046227 4.86110748 5.38933683 -0.09447039 5.13231629 1.77219147 3.73746090 4.91752726 5.31108565 3.62603875 5.17581346 1.74864859 1.72173820 0.72012383 5.34945228 1.84726044 0.16832030 1.73875272 5.19795173 0.17974807 5.21129659 5.38469644 0.28765588 1.62435285 1.83066185 3.62513156 5.34381299 1.78302919 3.23484656 1.80152663 5.37004452 3.25399295 5.46541242 5.23819732 3.22687069 1.82814736 1.69006713 5.94696334
0.05123889 0.07494643 0.00169130 3.41296369 0.10771611 -0.11286227 0.01088033 3.55508424 -0.10342585 3.54189699 3.39882627 -0.07661567 -0.01891925 -0.27558360 3.50366733 3.62564990 -0.01262795 3.44934186 0.06292312 3.61872442 3.55009958 3.61293809 3.55995276 3.52428621 -0.08232357 1.72451555 1.86585774 3.70730905 1.72834476 1.76091981 -0.14794269 5.23306521 1.74085575 3.54704283 5.27525379 1.73276394 -0.30663620 1.76392018 5.10088400 3.74433632 1.70907623 5.06552327 -0.06449364 5.33368523 5.44318672 3.68759419 5.23037073 5.39715702 1.79632887 -0.14031661 1.73003677 5.34825626 -0.02867890 1.67969718 1.71632434 3.78172752 1.84122090 5.34455322 3.60347499 1.79900926 1.72727469 -0.28726839 5.16522654 5.34648017 -0.11440996 5.25496180 1.84691436 3.76067919 5.21871792 5.24711902 3.61436358 5.34642933 1.65256140 1.72604900 0.75039562 5.33928164 1.77840395 -0.01992245 1.75313809 5.31783173 -0.04311848 5.30887183 5.29962041 -0.07933292 1.85835927 1.82405325 3.39731837 5.24929184 1.75658875 3.39086923 1.62074036 5.25799169 3.43654986 5.30098156 5.29798920 3.58775656 1.78618080 1.82026179 5.86028082 -0.10994560 0.17885707 0.27930758 3.24800606 0.00727483 0.18756552 0.00121150 3.55532680 0.23263218 3.54773141 3.51559142 0.20606601 -0.23583344 -0.28081027 3.27759255 3.70825446 -0.12035696 3.20301363 0.22037288 3.58040282 3.27378026 3.73318185 3.69211692 3.26868098 -0.02729478 1.79166439 2.05632211 3.64362495 1.87120019 1.93190835 -0.07638311 5.06621871 1.94529358 3.53033773 5.25558732 1.99456598 -0.32879917 1.77744597 4.92039009 3.68009441 1.63626301 4.90858698 -0.12811877 5.44747081 5.23768126 3.76543709 5.30119080 5.14825925 1.89703980 -0.11007428 1.93339228 5.39701777 -0.08687338 1.96111611 1.70071681 3.74255802 2.05245824 5.27236118 3.56176565 2.04725147 1.83703306 -0.30794610 5.00670069 5.36056410 -0.06630620 5.02539805 1.82545657 3.75681290 5.04502191 5.25724593 3.78360686 5.14356754 1.64464084 1.71930731 0.77328732 5.37752180 1.77874166 0.25819005 1.68307771 5.36957266 0.19933428 5.15411806 5.27209222 0.19203408 1.85047033 1.79118750 3.66066456 5.21780694 1.77898962 3.22843655 1.60865192 5.20673397 3.27345013 5.27040805 5.35928353 3.29378879 1.78265939 1.84239084 5.93900099
0.11739720 0.10712857 -0.05929290 3.47086073 0.07952690 -0.08653762 0.10489020 3.52792673 -0.14125473 3.47798122 3.50821363 -0.04453124 -0.12817549 -0.09993922 3.50651309 3.58186854 -0.04237559 3.48700354 -0.10151981 3.56504014 3.49677137 3.73172749 3.55555475 3.57350382 -0.16638860 1.76992563 1.81380048 3.70925764 1.77545542 1.91299961 0.01254203 5.41706648 1.80028896 3.57440909 5.24748569 1.80168354 -0.36943792 1.70817358 5.09718944 3.92068462 1.82369481 5.10939308 -0.07436896 5.39918929 5.35034892 3.71937407 5.35855527 5.26134832 1.75848099 -0.12753732 1.72022768 5.24639952 -0.02879644 1.85224554 1.64075042 3.72630614 1.82181126 5.36234780 3.60605466 1.80660234 1.72958025 -0.35589621 5.13812626 5.27853139 0.02372239 5.39714853 1.80967078 3.75539123 5.12636613 5.23946531 3.61547191 5.32648977 1.79912354 1.80353248 0.81441451 5.26528509 1.82614493 -0.07687324 1.73257962 5.32404939 -0.07867916 5.26234444 5.37853305 -0.04003190 1.66425967 1.76380867 3.41569172 5.30248191 1.77839628 3.42199991 1.74950401 5.27702764 3.41183476 5.29174802 5.34600673 3.55549625 1.84694257 1.70040541 5.83387527 0.25100722 0.25199244 0.19782727 3.42294009 -0.12879752 0.19759178 0.33076777 3.47800608 0.09738921 3.30085417 3.43968298 0.24020806 -0.20407798 -0.01107072 3.23770355 3.52270073 0.05070149 3.22243900 -0.19898465 3.60359571 3.22209341 3.86832624 3.57110579 3.28194575 -0.22568105 1.82557861 1.99737850 3.63808534 1.73782964 2.13927390 0.11332891 5.32584875 2.02681955 3.69320959 5.10384613 2.02413938 -0.47326539 1.65393327 4.95465007 3.94817447 1.85477184 4.93970178 -0.09746415 5.39516648 5.11004755 3.61963933 5.44796567 5.03796741 1.89124052 -0.15131733 1.87983747 5.25217506 -0.22051760 2.06568551 1.74483876 3.67283225 2.00016710 5.46550436 3.67532226 2.07686099 1.79076167 -0.26744967 4.97521270 5.21759038 0.17835508 5.19799207 1.79945318 3.80834807 4.92716693 5.22622727 3.59606831 5.10029947 1.80838425 1.81625129 0.83165454 5.17226023 1.84609734 0.17182733 1.67496959 5.46096324 0.15768131 5.24128324 5.54489596 0.21634680 1.83355432 1.67279061 3.63677776 5.25635276 1.74776365 3.27146503 1.75202090 5.26893924 3.24985328 5.31662332 5.36951240 3.27732830 1.81724876 1.70582488 5.90061215
0.12869702 -0.02066386 -0.12523379 3.48660826 0.06782357 -0.05573211 0.03673648 3.44263590 -0.04656840 3.56161031 3.54869104 -0.17441414 -0.02559204 -0.09504512 3.55738521 3.55841927 -0.04970556 3.59129969 -0.12186790 3.62827893 3.58507747 3.58964070 3.55768004 3.57615081 -0.23798768 1.75845962 1.79163862 3.71193079 1.73921081 1.76517498 -0.04815681 5.40426062 1.72610038 3.43977760 5.30261774 1.94581834 -0.31102909 1.71346358 5.19498167 3.77265353 1.78940086 5.09326449 -0.07722991 5.25131926 5.40027052 3.58413595 5.36009134 5.41050506 1.77499330 -0.17325250 1.81903593 5.39277107 -0.08077574 1.79986264 1.79970251 3.63528017 1.86549238 5.38107305 3.60009544 1.86863701 1.74553312 -0.28113333 5.14498304 5.26574055 -0.10873469 5.35603394 1.75728621 3.79518812 5.19903946 5.36554894 3.59814924 5.22476635 1.74979993 1.72030260 0.85666589 5.24814557 1.83899555 -0.05745889 1.83732939 5.31512840 -0.06068953 5.39078612 5.40200774 -0.04051775 1.71125565 1.79133776 3.37964267 5.35185332 1.65692062 3.53249744 1.77773245 5.35495864 3.56883769 5.23491079 5.22482745 3.45352079 1.73359679 1.67272198 5.77533158 0.15390555 0.10240462 0.17139081 3.49364916 0.24704645 0.19528230 -0.07640903 3.55063180 0.21654126 3.65452451 3.35802143 0.09072508 0.13797311 -0.06684321 3.33282208 3.68911132 -0.14006186 3.31613768 -0.28218591 3.73090058 3.37008799 3.79923783 3.63019276 3.35083933 -0.12669715 1.83053922 1.97607674 3.68339101 1.74814743 1.99092847 -0.03570554 5.41434455 1.97068391 3.35832156 5.46597207 2.15560139 -0.24887245 1.79693998 5.05465702 3.67948097 1.77759585 4.93648859 -0.10412795 5.34397267 5.17851690 3.63394788 5.45990351 5.20240907 1.89463074 -0.09690764 1.97461006 5.23956867 -0.20127283 2.00154586 1.87509724 3.54044983 2.07348846 5.30967823 3.67210468 2.10935213 1.69831075 -0.30657790 4.95924318 5.18084230 -0.16948773 5.15052757 1.75835197 3.90056482 5.05833614 5.46952437 3.50133709 5.00287662 1.75573651 1.73744096 0.87672958 5.27174197 1.72885683 0.18893194 1.79939500 5.29474729 0.21439531 5.36827815 5.35347923 0.30457167 1.69002654 1.61943708 3.61141663 5.31374892 1.67186625 3.36302076 1.81202044 5.33928739 3.39215687 5.20601269 5.25650551 3.17613657 1.71085973 1.65196007 5.85026808
0.04540546 0.04058053 -0.05805755 3.47547876 0.04169392 -0.18221416 0.11172781 3.47272718 -0.08258199 3.53354854 3.48663450 -0.06216632 -0.05712233 -0.06737664 3.43872118 3.62643145 0.00984338 3.46418252 -0.09749450 3.54765636 3.53778058 3.53507659 3.60779199 3.47417825 -0.19798916 1.74005322 1.86520823 3.65292251 1.75511547 1.70621271 -0.12944441 5.25653083 1.74496872 3.54979080 5.40166436 1.76745661 -0.34913297 1.78513460 5.26234691 3.88655864 1.77524180 5.24088619 -0.07164899 5.30000151 5.28420464 3.52785813 5.34855837 5.45171373 1.74630091 -0.18639085 1.76924821 5.36338422 0.06320305 1.85494077 1.79015489 3.61928853 1.64414974 5.28499243 3.59328234 1.78354119 1.71441271 -0.33697406 5.15735272 5.42385180 -0.04367190 5.36739525 1.72136738 3.87987523 5.17235452 5.30811825 3.59797333 5.35349785 1.84206013 1.82787993 0.73773238 5.27318494 1.82584183 0.00969550 1.72665077 5.35206227 -0.03689659 5.37565523 5.34268930 -0.09894235 1.73929885 1.77615380 3.34765468 5.35952670 1.79547685 3.42486639 1.75634631 5.31113077 3.48183024 5.20119096 5.36892992 3.53616489 1.66580206 1.79451699 5.89258792 0.07459288 0.11602578 0.23118522 3.46733142 0.05022616 0.16062291 -0.05664100 3.46846887 0.22856366 3.58848895 3.41502698 0.24738543 0.00980917 -0.17705510 3.20087964 3.53395450 -0.11619353 3.19605576 -0.12065806 3.59341914 3.27146258 3.49278548 3.64250848 3.17628702 -0.28078178 1.80334335 2.07282272 3.62218132 1.68630605 1.92598022 -0.03175640 5.30871378 1.98844989 3.62250560 5.41315993 2.04512629 -0.37053394 1.85006089 5.06928947 3.87874167 1.76324044 5.06805715 -0.07124532 5.22524479 5.06489093 3.53706990 5.39445794 5.23231171 1.68220509 -0.23595197 1.95398442 5.39016918 0.08022851 2.12770715 1.81867430 3.52000561 1.83189185 5.20329360 3.71863149 2.01314382 1.63513367 -0.40453736 4.97710769 5.41106448 -0.00829831 5.12520991 1.72187220 3.83111174 4.97514837 5.41748022 3.50073109 5.17114727 1.83739151 1.81617218 0.75877568 5.26718422 1.83244758 0.30454738 1.64176921 5.36378739 0.24562584 5.37592834 5.35453545 0.23732033 1.75454083 1.79695445 3.60623653 5.31335579 1.85021186 3.26682847 1.75900593 5.38056517 3.31274708 5.05760653 5.24433075 3.31685024 1.62521631 1.79999292 5.95956177
-0.13860708 -0.05674689 0.00538549 3.59090933 0.02520509 -0.08496000 -0.00795826 3.51251631 0.08832194 3.53589504 3.56174710 -0.04632108 0.01001928 0.09624946 3.38673474 3.49014583 0.10817986 3.40870397 -0.01080972 3.39336442 3.38848135 3.42900500 3.54284418 3.55113378 -0.22450687 1.71709289 1.50443012 3.86559318 1.71031706 1.63791893 -0.01225725 5.36357144 1.74875460 3.63500552 5.32831311 1.80675924 -0.18558020 1.75647239 5.41290818 3.74276095 1.75955515 5.30678379 -0.02683000 5.37453725 5.37241957 3.61294000 5.33364097 5.29414598 1.80157931 -0.22744042 1.60925316 5.37848156 -0.15414653 1.85048113 1.85112489 3.91981447 1.62907251 5.33600517 3.66799669 1.84918878 1.74326857 -0.17667201 5.36019408 5.30647316 -0.00603623 5.38813982 1.85796207 3.65917587 5.35350358 5.30470725 3.55774823 5.27432931 1.79196248 1.65778726 -0.16841664 5.24739346 1.74732014 -0.06785077 1.72308996 5.26658360 -0.23291461 5.35818296 5.34538134 -0.07449386 1.71324622 1.69874154 4.39849679 5.34665129 1.82639530 3.52168238 1.81599047 5.33844969 3.54309573 5.36140566 5.37533756 3.51601932 1.80096647 1.75177565 2.29157214 -0.42671987 -0.07390576 -0.01569168 3.41320770 0.08841403 0.11141292 -0.17048755 3.51643923 0.35048669 3.25660314 3.72707007 -0.05976560 0.18930610 -0.17727375 3.25135752 3.80457856 0.06519781 3.27260340 0.32551879 3.44835117 3.32920663 3.54909411 3.35506075 3.31274463 -0.40884801 1.69794539 1.52291777 3.74257212 1.72440333 1.79402863 -0.23648524 5.37415655 1.76122631 3.36482250 5.35012049 1.78359359 0.00820545 1.73620019 5.33214584 3.92277323 1.66220774 5.28583810 0.22944133 5.46478492 5.26344392 3.82856711 5.41716754 5.13991833 1.65563302 -0.29930471 1.69510166 5.10864097 -0.14222581 1.83592329 1.69378620 3.95378744 1.74886454 5.13781822 3.72384054 1.95402152 1.88347341 -0.28550705 5.24704154 5.57049518 -0.07655369 5.31156567 2.06415140 3.58183758 5.27061649 5.53369496 3.46941665 5.19313613 2.06958060 1.57698189 -0.23285008 5.09638348 1.82707798 -0.00725177 1.57959944 5.32898071 -0.19661280 5.12120433 5.44406895 -0.00402176 1.73470455 1.69471649 4.38948534 5.56826467 1.69637648 3.46956643 2.07268580 5.24502965 3.45401589 5.57162691 5.22518473 3.36434270 1.87387605 1.72252148 2.28339304