-270.45565936
-271.11124700
-270.22063123
-270.31441596
-270.28265760
-270.77672907
-270.58571539
-270.56313761
-270.61182142
-270.84962729
-270.52595994
-270.80719624
-270.99179100
-270.53389574
-270.68120111
-270.88937383
-270.47981937
-270.65973398
-270.85277462
-270.69853484
-270.70434273
-270.72819859
-270.11878691
-270.47294834
-270.00887655
-270.87198448
-270.81124703
-270.43073656
-270.70287801
-270.41477515
-270.89584530
-270.03913173
-270.63075797
-270.53891917
-270.98043989
-270.92338615
-270.71106036
-270.17875253
-270.61434706
-270.55602647
-270.80227159
-269.98169434
-270.72930864
-270.24628260
-270.58710444
-270.55529648
-270.26172901
-270.55526289
-270.53496699
-270.72420146
-270.92367060
-271.16851032
-270.37689334
-270.79326427
-270.71974831
-270.52290816
-270.97468586
-271.25188456
-271.10099481
-270.62766544
-271.16598615
-271.09517297
-270.11594448
-270.87090186
-270.79454878
-270.53406968
-270.55054897
-270.84510826
-270.25912169
-271.04709151
-270.58015928
-270.52275107
-270.54683207
-271.12419177
-270.88877062
-270.12807809
-270.54971049
-270.58955606
-270.79362249
-270.80776526
-270.76725603
-270.79303993
-270.63352789
-271.02917080
-271.19740739
-271.15009922
-270.26889597
-270.50929362
-270.80300142
-271.04801626
-270.60420468
-270.81502337
-270.40972314
-270.75325173
-270.82565395
-270.60944932
-270.81783682
-270.74337209
-270.00981523
-270.79347121
-270.44284090
-270.54478346
-270.64334359
-271.03749872
-270.48649879
-270.84257982
-270.43290946
-270.61232274
-270.94326226
-270.63925073
-270.47331572
-270.37961554
-270.29244140
-271.12606875
-270.84035799
-270.43460724
-270.08305325
