0.10775625 -0.38450257 0.88563702 -0.20127425 -0.43930769 0.02675167 -0.04100800 0.52198821 0.80001492 -0.20451525 0.24998985 0.02693474 0.35741544 -0.25054889 0.09860192 0.08613286 0.46063801 0.22197818 0.55760024 0.46501718 -1.30544178 -0.98389590 -0.33973073 1.15134921 -0.09112801 0.68463113 0.18247575 -0.76840785 0.17173853 2.00849771 -0.64863729 -0.22955358 -0.65322703 1.21399651 -0.10252750 -0.71787901 0.59547756 -1.15875675 -0.21282939 -0.25629990 -0.52705090 -0.97929218 -0.29802248 0.01468729 -0.44477535 -0.55068271 0.60281942 -0.83319025 -1.00359751 -0.22068870 -0.80097143 0.74186279 -0.40106092 1.12211669 -1.00859881 -0.42809662 -0.22574298 0.72508981 0.54042768 -1.07916420 0.44586439 1.54454597 -1.31792130 -0.22255519 -0.44921712 0.06730697 0.49041266 2.51170213 1.09301612 -0.04269337 0.06243258 1.60844328 -0.21474610 -0.14813300 -0.65078208 1.21657223 -0.16884436 -0.20009643 -0.27297936 -0.24133292 1.01042290 0.46280542 0.68026217 0.20311419 -0.36768421 -2.68558645 0.15735964 -0.05418488 -1.00452903 -1.05705182 -0.13046195 -0.34419211 1.41041091 0.39831887 0.77601377 -1.07874354 -0.03793201 0.23676594 -0.51732308 0.00009006 0.00042584 0.00534139 -0.00242618 -0.02047752 0.05153687 0.02765647 -0.04641535 0.02183264 -0.00749738 -0.05105406 0.08789376 -0.09829534 -0.01850107 -0.01201767 -0.10266044 -0.01480756 -0.01752728 0.13713826 -0.06503644 -0.00992022 0.10716621 -0.00706641 0.04506484 0.05602963 0.01952844 -0.00024212 0.08310696 0.04245898 -0.00483747 0.06676976 0.00971441 0.02374044 -0.02068949 0.07245071 -0.09451877 0.03518511 0.04586345 0.02140414 0.05652712 -0.03077215 0.02641336 0.02073132 0.06366513 0.05505777 0.05754181 -0.01592864 -0.00224839 0.00432234 -0.01228548 0.02241352 0.06419169 -0.01176912 0.02254093 -0.01710015 -0.00821936 -0.00213263 -0.07162965 0.01400067 -0.00405653 0.03637662 0.02213559 0.00086114 -0.03254320 0.00789294 0.00245360 0.00897106 0.08381126 0.08598069 0.06232629 -0.06611090 0.00026273 0.02117882 -0.00416491 -0.00139958 -0.01930315 -0.05375508 0.03377084 0.03047241 -0.01761614 0.00529104 -0.00211855 0.03088875 -0.02025914 -0.06057456 -0.01058531 -0.04715245 0.03002308 0.07228888 0.04020352 0.00182013 -0.01788805 0.08327611 0.07614804 -0.01724027 0.06781720 -0.01515429 0.05302518 0.02823894
-0.21458792 1.60045044 1.06591626 0.23887383 0.29594101 0.05350480 0.08960924 -0.73958964 0.27181341 -0.09533556 0.10390675 0.08902801 -0.45417260 -0.07656691 -0.15622997 -0.86864190 -0.11741709 0.17542902 -0.95368413 -0.00851670 0.16286706 -0.38252885 0.52360851 0.00542053 0.57767038 -0.53470862 0.62456629 -0.35536500 0.03231034 0.01699348 -0.08156140 -0.13745833 0.37208302 -0.70200690 0.30552645 0.39258965 -0.96652147 -0.25068988 0.14750486 -0.48266012 -0.23327700 -0.64479004 0.73405548 -0.50446564 -1.53711656 -0.34829240 -0.09726774 0.04006654 0.37471279 0.51468146 -0.15146034 1.18551191 0.61056044 -0.46362311 -0.05746480 -0.36199312 -0.70466675 1.10461784 -0.67960741 0.02442668 0.14447027 -0.31895387 -0.26433507 0.15968624 0.48360929 -0.27215336 0.44026662 1.10686631 -0.29899567 -0.09127754 0.76895213 -0.91580581 -0.83191257 -0.16507191 2.14437132 -0.31535633 -0.47448723 0.83059760 0.80460762 -0.16076796 -0.97057426 -1.00600180 -0.26012046 0.24450348 1.44147741 -0.64442439 -1.76079477 0.61603453 0.06485172 0.16032163 0.43552902 0.13396279 0.96410159 0.13019657 -0.60651590 0.28524369 -0.26994846 -0.17332784 0.06919680 0.07448047 0.09801389 0.09250507 0.08572758 -0.06473658 -0.01100922 0.07399506 -0.09145332 0.02968164 0.04748576 0.07422532 0.09331602 0.03156366 -0.01810710 -0.01182312 -0.01003282 0.01797163 0.04260445 -0.02493730 0.01472094 0.06137565 0.01616650 -0.01356275 0.03660676 -0.03119805 0.02930958 -0.15897750 -0.00107719 -0.01937833 -0.02546450 -0.03041024 0.01862197 0.02654387 0.00605220 0.03482191 0.03700804 0.03026258 0.02316320 -0.04334134 0.01438657 -0.01178967 -0.04338042 -0.03294749 0.04550458 -0.17838293 0.03481035 -0.04365537 0.03634100 -0.06921162 0.00067761 -0.03566029 -0.02033725 -0.02709410 0.05314089 -0.01438768 0.01105636 -0.00253723 0.00360397 0.00123884 -0.06714450 0.00131342 -0.02258360 0.01758074 0.05635892 -0.03004756 0.00732620 -0.01278981 0.01867712 -0.01716235 0.09913288 0.01148403 -0.00998338 0.00505329 0.00570283 -0.03545768 -0.01431871 0.01409763 -0.01969896 0.05070101 -0.00017435 -0.02884270 0.10668192 -0.02807404 0.05700729 0.03295374 -0.04305435 0.01288834 0.05890169 0.02715382 -0.03228977 0.02563608 0.02563464 -0.02206521 0.00845355 0.02915030 -0.02349739 0.01504126 -0.00263007 0.03421595
1.31213170 -0.85431547 -0.82759276 -0.46523916 0.93133381 0.18722296 -0.08189810 -0.27431341 0.33393010 -0.28713831 -0.19724277 0.11572165 0.86826446 -0.24006708 0.59755831 -0.26135009 -0.12871351 -0.57677179 1.09934673 -0.34777275 -0.04948447 -0.87746899 -0.71373348 0.95542498 1.42741098 0.49216188 0.10104468 1.83192744 -0.37817672 0.94326315 0.37126778 -0.50321548 1.65660410 1.62690913 1.28430409 -0.83725167 -0.53555280 -0.02397262 -2.17879995 1.33976733 -0.39913305 -0.87892649 0.26956198 0.78145592 -0.00941906 -0.01350760 -0.65341008 -0.75010719 -0.01596732 0.16568990 -0.06470177 -1.46347292 -0.71316419 -0.05058892 -0.87175152 -0.13191361 0.10197114 -0.21740379 0.88405292 -1.01780143 -1.03118251 0.14527675 -0.23752153 -0.05662253 1.62108105 -1.20866098 1.12229190 -0.25478105 -0.61109245 0.29988948 0.27382104 -0.25514969 -1.65513264 -0.64733189 -2.00760421 -1.67571490 -0.34952808 1.62020787 -0.39781571 0.03941224 0.71477954 0.19693816 -0.59864710 0.65732195 -0.23357444 -0.40312688 0.33642115 -0.16774523 0.12219658 1.64714232 -1.29327910 0.33799189 1.24544431 0.07431993 0.90624020 -1.39415038 -0.23820933 -0.17245904 1.74156655 -0.01111328 0.03986056 -0.09550908 -0.00176652 0.03176062 -0.00224917 0.12069729 -0.05180947 -0.16972437 0.04144486 -0.03342589 -0.03630699 0.00503686 0.01462094 -0.04284390 0.02165347 0.02469539 0.02924565 0.03661705 -0.01858489 -0.06900140 -0.08200688 0.03077732 0.10134130 -0.01550224 0.01648998 -0.07535285 -0.01720997 -0.02645021 0.00122170 -0.01923982 -0.01834983 0.06824622 0.01572213 -0.04317474 -0.10244391 -0.02802281 0.03159727 0.00127161 0.00783674 -0.01101061 -0.01671854 -0.00299685 0.06648047 -0.03776834 -0.06922135 -0.04952878 0.05415598 -0.03392559 -0.02209629 0.02050107 0.06739254 -0.00237739 -0.10493967 0.01249572 0.00477350 -0.01434153 -0.01594501 0.06300029 -0.05249400 0.04657675 -0.02651071 -0.07319950 -0.02301069 0.03299467 -0.00255798 0.00641802 -0.01430621 -0.01999049 -0.02557594 -0.00315469 0.03516648 0.00542009 -0.00278740 -0.04191888 -0.02373540 0.01901539 -0.16683682 0.11008040 0.07723984 -0.02192773 0.05501780 0.00820499 -0.06128130 -0.09461047 -0.04814936 0.02795833 0.03065659 -0.01652324 -0.02332730 -0.01563657 -0.02527335 -0.04998685 -0.05169385 -0.00334758 -0.03146536 -0.03126421 -0.00900123 0.01299431
-0.31375690 -0.16889336 -0.40098836 0.23024754 -0.13334371 0.50950673 1.52615323 -0.81903012 1.30040131 -0.13123047 0.11496920 0.30170017 -0.20725574 -0.13626251 -0.81474132 0.83712324 0.30504473 -1.27955175 0.33545530 0.62095378 0.25746827 0.22866067 -0.78021858 -0.39939769 1.82153887 -0.18278621 -0.44137496 -0.74091305 -0.15330302 -0.59887750 0.75047806 0.10679725 1.16893163 0.99297153 0.20828690 -0.06289221 1.25587992 -0.40832836 0.32799634 -0.13945619 0.18618014 -1.47839497 0.26197516 1.02756480 -0.97284216 -0.47031857 0.52497735 0.79241086 -0.07781919 0.76850948 0.80288659 -1.58647790 -0.29324511 -1.01588207 0.20501845 -1.76672556 -1.16275290 -1.56137718 1.28979894 -1.93322480 -0.25492381 -0.74893020 0.85780918 -0.13252761 -0.70786034 0.35750064 0.63184191 0.07127736 -0.25793379 -1.71363137 0.13599956 -1.43794509 0.38051899 0.59448455 1.95574994 -0.60670484 -0.17608630 1.23021735 -0.01150320 -0.39799811 -1.25834167 -0.91061159 0.53855132 0.31389319 -0.18770825 -0.03163351 -0.45517916 -0.45704169 -0.51266739 2.70602915 -0.67539356 0.35953531 0.91064836 1.02546737 0.39507107 0.59376626 -0.30467914 0.16931065 -0.41659557 -0.01636776 0.10502719 -0.05356204 -0.01657437 -0.00698966 0.04467763 -0.02285398 -0.00941293 -0.26193916 -0.00004495 -0.00365134 0.04715248 -0.05469908 0.06358265 -0.01028027 0.06477311 0.01203995 0.02746172 0.06329794 -0.06966423 0.04876207 0.09430108 0.07399561 0.08182580 0.09998180 -0.03438909 -0.00326634 0.00945038 0.00544115 0.07532325 0.04718344 -0.03494436 -0.04328871 0.04361403 -0.01012586 0.02471369 0.04354130 -0.03590240 -0.02307930 -0.03738906 -0.00893806 0.03834216 -0.09460894 0.00530073 0.08308646 -0.00359509 -0.00508872 0.02572285 0.00759233 -0.00543016 0.01390060 0.06282150 -0.02613224 -0.03030931 -0.01932289 -0.00263505 -0.00030436 0.04645298 0.07580689 -0.08102157 0.03794340 -0.00523448 -0.02426924 0.02207531 -0.04000840 -0.00988168 0.02206024 0.01055657 0.05061067 -0.02303722 0.11752177 0.03797993 0.01843793 -0.01247396 0.04553151 0.01967558 0.00768167 -0.11378464 0.03327748 0.00805461 0.01871301 -0.20057785 0.04417534 -0.14323046 0.01166772 -0.01465802 0.06474147 -0.03615362 0.00764833 0.06616742 -0.01506621 -0.04315052 -0.00081886 0.00909923 -0.02842761 0.05197677 -0.03698069 -0.02701223 0.07440336
-0.78074885 0.34818584 0.48534596 -0.57466053 -0.10498602 0.16423246 0.35792113 0.30296416 1.05948082 -0.57400014 1.04454035 1.27537647 0.12290606 -0.51552802 -0.18839136 -0.04842942 0.21022744 -0.55706702 0.22005607 -0.66671927 0.55280482 -0.30151603 0.09508537 -0.32694272 0.15704338 -0.24683089 -0.79906802 0.01712420 0.33383584 0.30107504 -0.53710690 -0.00741139 -1.91698340 0.36271458 -0.02780072 1.07457796 -1.14190560 0.83617696 -0.39144981 0.58587942 -0.36300503 -1.75975759 -1.86174781 1.07420628 0.14350257 -0.36360238 -1.01321498 -0.28649078 0.61945146 0.85351943 0.09647031 0.66764826 0.52049144 -0.09298238 0.25183291 -1.17598408 -1.31731675 0.44926406 -0.27122814 -0.59355045 0.43808582 0.33983298 -0.37316580 1.25136061 -0.15146482 0.42404475 1.41055348 1.12587463 -1.95201656 0.34793221 -0.11518442 -0.63598900 -0.26658963 0.26488314 0.23651989 0.09603169 -0.77071631 -0.16335387 0.10012912 -0.56089723 -0.14815888 0.74568256 0.11725715 -0.82915942 0.27872364 -0.21831838 0.12251717 -0.87155872 -0.64529396 2.11654309 0.42575314 0.59057291 2.67228063 -1.83987601 0.34971623 1.31810455 0.25564825 -1.55278651 0.28896730 -0.00548914 -0.00424877 0.04517591 0.00140734 0.01228780 -0.00368761 -0.00462876 -0.09234624 -0.05077271 0.00793189 0.04773931 0.03048165 -0.01232362 0.01287948 0.12615862 0.00488077 0.00374459 -0.03695936 -0.02438807 0.02602233 0.11405949 -0.02517670 -0.00648131 -0.09170383 0.00363057 0.01088072 0.01622395 -0.03942881 -0.03322403 -0.01456901 -0.11610728 0.07321440 -0.10801023 0.00099350 -0.03843326 -0.02984860 -0.02683015 -0.00496191 -0.03224618 0.07713799 -0.02850335 0.06537521 0.01676511 -0.01451431 0.03113348 -0.02290305 0.03158847 -0.01541730 -0.07753145 0.00564242 -0.03934138 0.02484007 0.01631961 0.07320196 -0.00298715 0.00518330 -0.03202465 -0.12346295 0.01406582 -0.03331640 0.04236564 0.02616511 -0.04808357 -0.01460004 0.00589431 0.02212200 -0.07709066 0.01020989 0.05280906 0.01791451 0.03713712 0.00541239 -0.01862281 -0.01611446 0.06616239 0.10941438 0.09092934 -0.04257912 0.07436216 0.04959217 -0.00120210 -0.03359338 -0.02480765 -0.01828967 0.02872002 -0.03129644 0.04129813 -0.00487729 -0.00524945 0.04679929 -0.01907518 -0.06585852 0.07870670 0.08540452 0.07004945 0.08470655 -0.06038837 -0.03708655 -0.01799661
-0.30354708 0.26559942 0.32662453 1.03171967 -0.26346673 -0.24874014 -0.08962834 -1.41884125 0.97207837 -0.63373901 -0.08120088 0.06425363 0.17416623 0.16862507 -0.15640379 -0.55008082 0.24664136 0.48861770 0.35535736 0.21596616 -0.43294247 -0.31520366 0.07787048 -0.46308432 1.05102160 -0.39512200 -0.64193697 2.59455434 0.55136571 1.08229823 0.89113157 0.23362631 -0.19072182 0.15654707 -0.49051051 -0.01964373 0.81627226 -0.27428499 0.72350830 -0.03924938 -0.33748521 0.17364637 0.39979173 0.78606916 -0.62507654 0.60124532 -0.00238269 -0.38099804 -0.77117938 -1.85933295 0.81745725 0.57269318 0.29318852 0.21631474 0.33099204 -0.01325504 -0.26215825 -0.25130731 0.26907677 0.33879637 -0.21008250 -2.16134980 -0.48465928 0.49311134 -0.42015647 0.56787642 0.00697468 -0.62838632 0.12989038 -0.44045287 0.67444313 0.82084098 -3.09867419 2.31044375 -2.68507465 0.41832510 0.16233830 -0.31152802 -0.70889971 0.05147691 -0.23730742 -0.07641780 0.05334373 -0.56050344 -0.58619697 0.10041522 0.66288642 0.31655153 -0.18677619 -0.60105245 -0.41460063 -0.80502938 0.05134465 -0.62505406 0.18971328 -0.64376796 -1.09614134 2.68737711 1.50916498 0.00419707 -0.05036077 0.11393729 -0.01130253 -0.06241894 -0.09039117 -0.04468039 0.02234769 -0.02336057 -0.00798365 -0.00992962 0.03061177 -0.02394049 0.01549537 -0.06870114 0.01188014 -0.00353665 0.11998819 0.03946044 0.02606714 0.01649865 -0.02805133 -0.05453722 0.05498757 -0.01551050 -0.02323588 0.06135364 0.04719235 0.10261942 -0.06268549 -0.00510214 0.03281613 0.00247864 0.02299275 -0.07659787 -0.01263055 -0.00578809 -0.00734774 -0.07583357 0.02923309 -0.01458189 0.02629821 0.00415951 0.00124456 0.02681415 -0.02944836 0.01471162 -0.04641129 0.03064991 0.01945704 -0.02103056 0.03633160 0.04629837 -0.04237779 -0.00291835 0.02364928 0.05203964 0.04748868 0.01967457 0.01581968 -0.08387763 -0.04410127 0.02217435 -0.00848508 -0.00949461 -0.02060988 -0.00943432 -0.00071396 -0.10383760 0.00651040 0.02197161 0.05163368 -0.02041157 -0.01711536 0.05354130 -0.00572699 -0.00639143 0.07394962 -0.05603326 -0.05491505 -0.06494966 -0.05171754 -0.03231630 0.02195269 -0.00849875 0.00475221 0.03777263 -0.00312915 0.00386451 -0.00736067 0.01563324 0.01520000 -0.03943791 0.03099478 0.03678958 -0.03187484 -0.02979968 0.02797562 0.02153595
-0.24564653 0.31913797 -0.26314606 0.08853073 0.10698178 0.24006991 -0.86065796 0.95337954 -0.29324650 0.08679939 0.26080187 0.99961377 -0.43670145 0.68418094 0.76059590 0.30456984 1.07571137 -0.41073930 -0.29899964 -0.24978456 0.07507544 -0.47546247 -0.12523200 -1.16182953 -1.90366674 0.07430972 1.48607250 -0.98110338 0.14306169 -0.45059133 0.55635818 0.24049004 -0.86728510 0.65678742 0.08112368 -0.14319032 0.35875052 0.28068944 -0.55505507 -1.02124101 0.05926889 0.15237911 -0.18299996 -0.10510318 0.62338147 -0.70120270 -0.19334963 0.57287154 0.15316918 0.67373883 -0.56748196 -0.32418500 -0.41408936 -0.57446830 0.22698201 0.09174778 0.05402396 0.12056667 -0.90550133 -1.76342847 -0.99781374 1.98845566 0.88266600 1.34381146 0.12081590 0.15194332 -0.24786601 -2.22030361 1.32439691 0.73761736 -1.14376683 -0.59954701 2.13098888 -1.23672525 0.20565557 0.09350500 0.02880166 0.13645772 0.31926950 -0.08809265 0.10574960 0.47315193 0.18685504 0.94303306 -0.14639206 -0.73523908 0.68616019 1.09942905 -0.57877448 0.96619137 -0.42032884 0.30961954 -1.58786779 0.34143581 0.35900564 0.40956911 0.15254456 -0.04221502 -1.53802971 -0.00382585 0.00725433 0.09973930 0.03757361 -0.02211928 -0.01390483 -0.00713454 0.01392120 0.04722776 -0.00566409 -0.00019790 0.01926060 0.06201444 0.03224466 0.03745795 -0.00274417 0.08433395 0.07327726 0.05833821 0.05220802 0.04570555 0.02493639 -0.00390128 0.16466092 0.00771519 0.01352966 -0.04185443 -0.01637493 0.02647053 0.03727135 -0.00360178 -0.08535263 -0.08973795 0.03656833 0.04302353 0.01745982 -0.00958895 -0.01635749 -0.09296727 0.01277136 0.00398978 0.02097415 0.01091049 0.02766342 -0.05929993 -0.05245257 -0.05866885 0.06717212 0.01603102 0.00630084 0.03416090 -0.03661044 -0.02902091 0.00545485 -0.06167640 0.04536389 -0.00348745 0.12808549 0.05006357 -0.07362953 -0.00133912 0.06008198 -0.07458223 0.02261052 0.01760149 0.05795072 -0.04263125 -0.01453101 -0.04686884 -0.06114512 0.03329416 0.01767006 0.01264458 0.00547154 0.00959289 0.00838638 0.00300493 0.07074406 0.00894761 0.02886821 0.01917390 -0.03663414 0.03406606 -0.00502434 -0.04386717 0.01225994 0.09395502 -0.00591061 -0.03474956 0.00266498 0.02043958 -0.06071777 -0.03678134 -0.00779095 -0.02930204 0.18418641 -0.05042693 0.00885156 0.04804423
1.30924862 0.54531828 0.95406656 0.83872423 -0.88616805 0.27960949 -0.51144936 -1.03959051 0.11329114 -0.08290715 -0.64593944 -0.48525212 -0.42107066 0.24223269 0.08591158 1.48600849 0.50754881 -1.35528137 -0.32596726 0.30298156 -0.81926746 0.44314728 -0.06391886 -0.29852185 0.66863822 0.49243510 0.30141940 -0.97381275 -0.40314629 -0.38667327 0.33523910 -0.98425906 -0.78109797 0.58326413 -0.12119266 -0.11645370 0.57837250 -0.44578671 1.01743211 1.88124797 0.04715535 -0.44991809 2.44128230 -1.20096606 -1.41004563 0.99201896 -0.56059111 0.79059403 -0.20842714 0.24344930 -0.62096576 -0.90583206 -0.08522144 0.42411141 -0.40550007 0.83674688 -0.01337526 0.14459110 0.34505319 0.74115245 -1.73257768 0.42263292 2.14474446 -1.97990780 1.29276388 -0.82798141 -0.09734220 0.95138625 0.22654984 -0.12192123 -0.29365507 -0.31577195 -0.16041512 0.46450886 1.80437374 -0.27133022 0.44744398 -0.18742385 -0.38546758 0.63429370 -0.32673380 -0.64258342 -0.10229004 0.23487662 0.38503976 0.53395406 -0.16283036 0.10219745 -0.12509805 0.68756563 -0.67787931 -1.55395717 -0.29846872 -0.43732793 0.08410916 0.01352214 -1.84730114 0.11776653 -0.96315802 -0.10185852 -0.03835375 -0.04813236 0.01718175 -0.00497924 0.07433503 0.01414450 -0.02654116 0.03650487 -0.09463080 0.02497568 -0.08138077 0.06598176 0.05360598 0.09149829 0.05391725 0.02646774 -0.03605453 -0.01066383 -0.00560618 0.06639266 0.04099688 0.07088133 -0.01099037 0.00023181 0.01135408 0.00674725 -0.00970408 0.00237876 0.03685777 0.02264273 0.02928950 -0.01976350 0.05658996 -0.03240478 -0.07716273 0.00469382 -0.02116564 -0.10518197 -0.01617169 -0.03769809 -0.04629995 0.00035829 0.01063697 0.10209761 0.00846104 -0.00786083 0.01557685 0.00006108 -0.00018565 -0.05944163 -0.06138248 0.07019788 0.01236581 0.00540814 0.01295284 0.05052786 0.00163968 0.00578170 0.03716177 -0.07609886 0.00237516 -0.03155368 0.03624027 -0.02989768 0.05050235 0.01072900 0.00055136 -0.09788874 -0.00027870 -0.00435420 -0.04379387 -0.00870337 -0.00316196 0.02377498 0.00962630 -0.04991747 0.01973599 0.01638981 0.03863468 0.07044604 0.03915353 -0.01606427 -0.01990690 0.01381947 -0.00336313 -0.00232203 -0.01309157 0.04136150 -0.01494197 0.04150571 0.01938204 0.05497981 -0.05094928 -0.00123523 -0.01868173 0.03324525 0.06608420 -0.03929468
-0.20782875 -0.26222806 -0.95046589 0.51795866 -0.29002492 -0.13645464 0.18573939 -0.90274027 0.22464151 -0.57801869 0.09828918 0.55692731 -0.35138284 1.91505662 -0.01635887 -0.58575012 -0.66469575 0.19602896 -1.19401595 -0.89535423 0.28028787 -0.41954876 0.07075731 -0.44533482 -1.40870719 0.45228265 0.94125002 -0.57352829 0.42334455 -0.19944406 0.71223809 0.61107231 -0.13785315 0.19835929 0.28068552 0.30452190 0.21405455 -0.30127591 0.00585508 1.10730612 -0.06634493 0.61011002 0.61228038 -0.24487213 -0.60079206 -1.91201240 1.21373927 -0.50604753 0.04853197 -1.28925583 1.27276957 -0.31897410 -0.25796640 0.55525887 0.66698927 -1.49014539 -1.22771154 -0.34058560 -0.79891495 -0.19541271 0.60112863 0.03232151 -0.30898729 -0.29013556 0.83455300 0.80226773 -0.36233642 1.69045129 -0.78787129 0.99769452 -1.30768726 -0.20302474 1.51816499 1.67504412 -0.25946591 0.12757099 -0.08755604 -0.63286661 0.27921261 -0.13362041 0.00308401 -0.20269652 0.34113097 0.91208593 -0.53553483 -0.50253405 -0.28075305 0.88538856 0.07832471 0.29824854 1.81394228 0.95537648 0.68668838 -0.19482754 -0.01427951 -1.21900681 -1.01067674 -1.16293348 0.45782528 0.06364239 -0.05123726 -0.02466623 0.07046959 0.04327918 -0.04141265 0.01018308 -0.00957295 -0.06336986 -0.01162293 -0.01421173 0.06012301 0.15773896 0.00700010 0.05072656 -0.02197531 0.00443778 -0.03701385 -0.11592256 0.03826952 0.07504422 -0.05672521 -0.09079079 0.05655817 -0.01833777 -0.01023867 0.04116033 0.01088012 -0.03610794 0.01964941 -0.06531093 0.11108388 -0.03467378 -0.01079078 -0.01179516 0.07415033 0.00306963 0.01413433 -0.11938821 0.02969689 0.00570852 -0.03530464 0.05272091 -0.08439323 0.05708315 -0.04279044 -0.04180157 0.10974919 -0.03389664 -0.01002724 0.04150703 -0.03510207 0.00513754 -0.03259089 0.00613846 0.01224771 -0.00425799 0.03505288 -0.00730057 0.02910731 0.00229153 -0.01349980 -0.08188347 0.01693143 -0.00599673 -0.02131364 0.03579721 0.00088165 0.02950726 0.00198863 -0.11680555 0.05986737 0.02465249 0.03046791 0.02728667 -0.02767351 0.02118859 0.02823215 0.02126058 -0.03047364 0.00600969 0.09174297 -0.00620206 -0.07173066 0.00243311 0.00372609 0.06213904 -0.01199126 0.01147438 -0.03559098 0.02656124 0.03147097 -0.01722161 0.01549334 -0.02940153 0.10638339 -0.00805502 -0.05957058 -0.01595583
-0.56077874 0.17954171 -0.14570541 -0.12816225 -0.00778214 0.13025251 -0.46298600 -0.56020901 0.11040388 -0.14404523 -0.05073278 -0.06780968 0.89276547 0.65232711 0.32000597 -0.80714820 0.02663765 0.44306061 0.45201731 0.25498969 0.64182366 -1.62745066 0.42661357 -0.73341803 -0.20568856 -0.14103739 -0.35582564 -0.79918231 0.19247786 -1.24185132 -0.84767567 -0.63900749 -0.75558433 -0.38497272 0.39700872 -0.44003973 1.89003738 0.87877385 0.98429806 -2.03589594 -0.53631433 0.98791009 -0.26343045 -0.77463559 0.05066713 -1.53622529 -0.05516300 0.83782724 0.31379107 -0.77037055 1.11265048 0.47591126 -0.07988634 -1.35802283 0.56101597 -0.33525111 -0.20915362 -0.01069632 0.00617574 -0.99167891 0.41485504 0.58513919 -0.19173279 0.43619723 -0.95047140 -0.12770126 -0.25218586 0.66468085 -0.16679527 1.48275536 0.21154870 0.87728646 0.03270070 0.47302196 -1.35756016 0.56119863 -0.01704363 1.01019178 0.46764478 -0.12060136 0.21323525 0.53746801 -0.25154504 0.42107685 0.45089538 -0.05751569 -0.06933154 0.85269835 -0.19552849 -0.36383490 0.30788106 0.52355756 0.46610636 0.47390157 0.05847987 -0.84525376 -0.53721036 0.01212130 0.81450285 -0.00668372 -0.04810551 0.03649168 0.02401636 0.08655654 -0.04061185 -0.02082423 0.01559129 0.07035650 0.06876840 -0.00681326 0.01802991 0.02124136 -0.02584675 0.03022914 0.01534863 -0.03118500 0.01463068 0.05109189 -0.01430822 -0.00163194 -0.15205951 -0.01335642 0.19004085 0.02086782 -0.00216291 0.02664687 0.02353171 -0.00810322 -0.04188774 -0.04067369 0.04499321 -0.05196910 -0.07315186 0.05300314 -0.00597274 -0.01037695 0.02045767 -0.13014279 -0.03896347 -0.02283697 0.01134919 -0.00663103 0.00107754 -0.00992344 0.06053281 -0.04211041 0.02668679 -0.03271301 0.01485184 0.01578102 0.02354642 0.13753449 -0.05846886 -0.01868895 0.02339327 -0.00700147 -0.04913338 -0.07748148 -0.07937275 -0.02748512 -0.03501464 -0.00039097 0.02622099 -0.11128408 0.06673800 0.00313578 0.00113630 -0.09736140 0.00263873 0.02763172 0.02460571 -0.03069392 -0.00286435 0.00788900 0.01611221 -0.00883311 0.04743656 0.03387799 -0.05174534 0.00829859 0.02436908 -0.05351108 0.05119684 0.02700252 -0.01664076 0.02866201 -0.01061863 0.02867180 0.02674436 0.01160974 0.02568177 -0.03858162 -0.04934311 0.01850419 0.13097629 0.03844501 -0.03858047 0.04683564
-0.51679062 0.81202651 0.48214969 -0.08133895 0.05560539 0.16058422 0.27721844 -0.03232102 0.02171346 -0.45986113 -0.55045072 1.10740996 -0.30587236 -0.00877630 -0.17992012 0.17179471 0.15814016 -0.59681181 1.20699511 -0.42694053 -0.64317867 -0.50155895 -0.34655278 -0.37314440 0.15962201 -0.00255838 0.12172598 0.76100037 0.29772235 0.60109998 0.67278518 -0.97973005 0.61060636 1.01283286 -0.00606084 -1.92739859 0.01619628 0.33559802 0.13971924 0.07728764 -0.15579193 0.92876588 0.46223624 0.44947201 -0.48676693 0.05501355 -0.28902880 -0.52061151 -0.19666064 -0.41149505 0.34072875 -1.04996740 0.37579965 -0.20877541 -0.42711236 0.77045694 -0.12235358 -0.78396381 -0.64960602 -1.37497326 0.18231747 -0.67711016 0.61756095 0.44231703 0.55107044 -0.11034385 0.04131623 -0.20634092 0.01286003 -0.49043421 -0.13540899 1.40614582 -0.13464133 0.62548945 -2.33118604 0.30447630 -0.52401499 0.02043510 -0.38920296 -0.31551566 0.58001905 -0.84233978 -0.81803487 0.78680574 0.12069835 -0.16548270 0.18299203 -0.15300308 0.31372666 -1.21170811 -0.61761959 -0.92650797 -1.22237771 0.73138690 1.59667305 0.69001254 0.25487252 1.28594803 2.49821523 -0.00167378 -0.01930183 -0.01073928 -0.00976321 -0.03650700 0.05745930 -0.00666862 0.00002035 0.08574667 -0.02388037 0.05463079 0.00979875 -0.05746407 -0.00315028 -0.02265316 -0.07553496 0.07411989 0.09852635 0.08592277 -0.03538633 0.01304821 -0.12287869 -0.06350780 0.06092471 -0.00770526 -0.02583096 0.00544066 0.02162185 -0.02361933 0.05165910 -0.04078602 0.00970943 0.06539343 0.03135168 -0.11967636 -0.06988590 -0.03353182 -0.03123624 0.03047480 0.04137091 0.00517877 -0.04535863 0.02586304 -0.05027805 0.05232428 -0.03486102 -0.04445122 0.06397305 -0.04621766 -0.04192365 -0.01493372 0.05376052 0.06605133 -0.00491421 -0.00711567 -0.01928431 0.04073221 0.00146479 -0.06537610 0.00442918 0.06066636 0.01607081 0.08420113 0.03178529 0.00434738 -0.01285047 0.01954494 -0.03844359 -0.05851415 -0.07307449 0.06778227 0.05484324 0.04114421 -0.03283289 -0.00364455 -0.01431594 0.04021991 0.03892788 0.02134401 0.00039559 -0.03827113 0.01138417 0.03708281 -0.21846002 0.00751262 -0.01252602 0.04180880 0.01195963 -0.00907299 -0.02146107 -0.02396915 0.00379643 0.00912363 0.02813464 -0.04833202 0.14947402 0.00497637 0.01366840 0.08945804
0.13376162 0.29003981 0.12294181 0.01568910 0.32602431 0.79711689 -0.82905368 0.13973785 0.04134700 -0.24934054 0.57570257 -0.46034440 0.40057053 0.02444280 0.74862947 -0.89153595 0.22167850 0.86059020 0.48669306 0.32926604 -0.22233053 -0.04929316 -0.37047374 0.38913959 1.56306769 0.60600935 -0.90568321 1.54243296 -0.16592186 1.80521516 0.64093856 0.34654359 0.45633410 0.13330053 -0.43676114 -0.35962422 0.13417310 -0.09205114 -1.17171621 -1.13543583 -0.07696274 -0.94465020 -0.26847595 0.11498104 0.36355458 0.74053869 -0.41886657 -1.13391624 -0.21032480 0.34822919 0.36404432 -0.80384005 -1.24000856 -1.33408964 -0.32933891 2.74530444 2.46097716 -0.09871098 0.04924906 0.01588085 0.21499981 1.33803741 -0.08342781 -1.03661187 -0.06591175 -0.36218684 0.69290709 -1.06843360 -0.05301217 -0.17638887 0.36717511 -0.18283224 -1.64651822 -2.38837280 -0.45059645 0.53065539 -0.43749033 0.00173924 -0.02373803 -0.04796968 0.26616427 -0.32365190 -0.08526792 0.93258278 0.10263378 -0.05988126 0.47092948 -1.08340551 0.14484839 0.81382214 0.03960775 -0.16186378 -1.59594608 0.57224723 -0.38033616 -0.26002621 1.21144735 -0.47069642 -1.39062658 0.00003487 -0.01005903 0.05473377 0.01737300 -0.00920005 -0.08690667 0.10281937 0.01207990 -0.08699687 -0.03003765 0.02626637 -0.03850139 -0.02713255 0.02372972 -0.04938057 0.02313852 0.03866149 -0.01085346 -0.00092234 -0.01807830 -0.06888124 0.00942436 -0.02384165 -0.04884180 0.03710922 -0.02154288 -0.03106874 0.03612933 0.04644092 -0.05251865 -0.03005281 0.01174770 0.03743402 -0.01584068 0.00836655 -0.03577521 0.01992755 -0.06119002 0.10714355 0.00302549 -0.00155039 -0.07074335 0.02139995 0.03561474 -0.00747783 -0.00517866 -0.02316711 -0.00807575 0.00270856 0.01556514 0.04081961 -0.00490197 0.00799669 -0.15486944 -0.03767942 0.03704203 -0.00959087 0.07200809 -0.06169053 -0.00421782 0.04722079 0.03651283 -0.03543236 0.01866333 -0.03822193 0.03077549 0.00269518 0.03738778 0.00208568 -0.04081672 0.04128255 -0.02270232 -0.00397474 -0.00594948 0.02855527 -0.01389112 0.01213117 -0.12215759 0.06535814 -0.01679011 -0.10222756 -0.00879591 0.00251371 -0.12257982 -0.00559180 0.00461549 0.10650973 0.01268084 -0.04271614 -0.02012804 -0.03360811 -0.05166526 -0.08262121 0.06043987 0.05494138 -0.02218794 0.02644827 0.00933958 0.07323230
0.96289703 -0.01929739 -0.27683108 -0.30866700 -0.90076678 0.48675322 -0.16345714 0.66058898 -0.90763796 0.64897317 0.14506603 0.20799237 0.70848934 -0.10875006 1.11098428 0.00025206 -0.26101660 0.69820718 1.17469364 0.65416588 0.68177808 0.33831860 -0.65466976 -0.74591629 -0.42112571 0.24053044 0.91179278 -0.08349221 0.72719274 0.16188135 0.23467710 -0.63851249 0.45765318 -0.11542937 0.22248368 -0.28307202 -0.14416649 0.22176532 -0.12629726 -0.26804021 0.20719681 -0.04110874 -0.35505267 -0.89735965 -1.07552642 -0.04991021 0.17689016 0.26728047 -0.03045404 -1.26494084 -0.82874251 -0.84732374 1.20305129 -0.90058971 -0.48647106 -0.98990168 -0.06150530 -0.36142274 -0.74255726 -0.67991224 0.16826787 -0.34692957 0.07555641 0.22659242 -0.10481857 -1.10321482 -0.85280338 -0.04009677 -0.22319626 0.41556368 0.16440631 0.69843395 -0.08443956 0.72410237 0.21776877 0.21323161 0.48239851 -0.41469896 0.57431350 0.53427552 1.79956611 -0.67191161 -0.74192191 0.19262967 0.32558585 0.75312280 -1.97154622 -0.21918221 -0.52299222 -0.41556126 -0.58725311 0.11911193 -0.18060970 0.07675134 -0.45721448 0.69332464 -0.01800475 1.45539725 1.57436428 0.08513967 0.01202365 0.06606956 -0.05194214 0.00612595 -0.02491120 -0.03616615 0.03293729 -0.04286739 0.04403659 -0.07725865 0.06804909 -0.01376863 0.14193518 0.04726582 -0.08700124 -0.01885659 0.05370262 -0.03572879 -0.04364896 -0.00176817 0.03355044 0.05555604 0.03419045 -0.05372108 0.02767966 0.04905009 -0.04197660 0.02518003 -0.01888682 0.00313224 0.03366723 0.02086935 0.05887252 0.03104424 0.05118206 0.00136076 -0.01280456 0.00907825 -0.04646520 0.03675009 -0.00811759 -0.03443834 -0.05092133 0.01495469 -0.00480274 -0.04982898 0.02378727 -0.02754050 0.02860993 0.01548025 0.13897271 0.01694391 0.04640234 -0.02832000 0.00928307 -0.01972622 -0.03336771 0.01176354 -0.01006090 -0.00155550 0.00644229 0.02557667 -0.15075601 0.03009291 0.01548534 -0.01526100 0.00427544 0.01993271 0.04665760 0.00110791 -0.02656480 -0.01334952 0.00461576 0.00914512 -0.01136572 -0.02757892 0.01967337 0.02951123 -0.02612088 0.01224147 -0.00652442 -0.00861558 0.00227293 0.01814749 -0.01691852 0.00394768 -0.00993958 0.03856087 -0.01224428 -0.00212487 0.01600994 -0.01027388 0.03519325 0.05292234 0.01833250 0.03419328 -0.00344110 -0.00743507