-0.26513325 -0.09966162 -0.00693938 3.77148286 -0.26185322 -0.03862180 -0.20347778 3.50483521 -0.07138279 3.74294345 3.55390788 -0.28280099 0.08863154 -0.13978267 3.78087346 3.77592377 0.13978088 3.40204502 0.07321473 3.75646805 3.22405213 3.84320348 3.70532360 3.46920176 -0.08387672 1.90749796 1.49561242 3.63912333 2.03137019 1.80796939 -0.12640192 5.56875463 2.02487449 3.45324360 5.43999215 1.92085920 -0.17137673 2.02033803 5.28579291 3.44386222 1.72745598 5.18153657 -0.05560677 5.12321276 4.77094081 3.45957700 5.52378744 5.28444215 1.76643252 0.05175348 1.89874767 5.42277216 0.05079813 1.55620584 1.86813568 3.66226516 1.94987866 5.71800662 3.18101649 1.93775863 1.60975359 -0.23022082 5.27294091 5.06203287 -0.20101157 5.29862482 1.94516016 3.59823928 5.76161273 5.58967400 3.23060560 5.58268347 1.90149301 1.64944667 -0.41736845 5.39533249 1.99804501 -0.00759844 1.61424432 5.12077002 0.13628375 5.27520206 5.35588010 -0.15639266 1.64910919 1.73965518 3.61871759 5.25271431 2.12255122 3.37092662 1.67374613 5.32857973 3.37886932 5.42632973 5.29278941 3.68655852 -0.04429434 -0.08380220 0.12885422 4.04876180 -0.37798020 0.16941222 -0.03766370 3.31378306 0.10656280 3.79720651 3.63060628 0.03169790 -0.10689449 -0.22507744 3.63276694 3.60391929 0.26952688 3.21671855 -0.18434533 3.70866532 3.24608842 3.83164112 3.86652996 3.15850560 0.24513461 1.83273153 1.52132670 3.60891472 1.93592581 2.04790804 0.10741214 5.45884988 2.19829628 3.65953830 5.31196500 1.91424014 -0.42713179 1.91605008 5.22951174 3.17495519 1.69905236 4.94640049 -0.17472916 5.34693383 4.53548279 3.22237974 5.38697792 5.12409977 2.10595639 0.00725915 2.02522615 5.57356579 0.05671423 1.76118534 2.06779320 3.54399082 2.05960655 5.98839896 3.00875795 1.94896273 1.39526157 -0.07074467 5.10960533 4.79157029 -0.07092087 5.38322800 1.72223961 3.60108734 5.63160372 5.39289850 3.36414983 5.44182631 2.13084442 1.54049659 -0.24141160 5.71866129 2.05319241 0.12989363 1.68601754 5.12189474 0.42012491 5.54104334 5.23280073 0.06030349 1.42078723 1.77448965 3.37983782 5.13588663 2.23483922 3.13150939 1.55139010 5.48633938 3.11538404 5.39939323 5.60215677 3.60029095
-0.03078745 -0.07637173 0.09869823 3.48625767 0.16063372 -0.37852879 -0.05165634 3.58013952 -0.22290343 3.57118367 3.62009096 -0.17596938 0.04074630 0.12005105 4.10038344 3.25658688 0.29963305 3.73703560 -0.12029625 3.16215297 3.46008796 3.56362123 3.52870034 3.45502136 0.20354143 1.69438161 1.62067498 3.49822881 1.82314401 2.05121561 0.02536857 5.42404900 1.98510742 3.46990857 5.19200072 1.81539484 -0.00953254 1.59565055 5.34319645 3.25049971 2.01464154 5.32449711 -0.00321996 5.61798190 5.76020291 3.72375505 5.57763311 5.25987944 1.65040170 0.46056425 1.89146688 5.24446211 0.04016674 1.54152005 1.56625513 3.56088183 1.74688790 5.35425307 3.51264058 2.00602696 1.94490299 0.09361031 5.34053846 5.52651492 0.01016721 5.01350221 1.80871924 3.42355444 5.22547612 5.30189575 3.78106979 5.23266190 1.41953521 1.67820984 -0.03912143 5.38610051 1.95811363 0.07824472 1.95492558 5.63124462 -0.07619122 5.18785267 5.52480890 -0.29769160 1.63251881 1.82577365 3.61350256 5.17957998 1.88879502 3.27594314 1.89587259 5.38405454 3.61038241 5.33956206 5.39052475 3.51727044 -0.03706186 0.17720870 0.26658254 3.64744135 0.03898292 -0.12321361 0.03579261 3.67359302 -0.00800555 3.45653979 3.66992083 0.10840007 0.02907056 -0.01987856 3.77402957 3.24914468 0.08113211 3.64934862 -0.09863187 2.93982887 3.35446217 3.43271200 3.30384557 3.49663583 0.33815133 1.92393934 1.64327134 3.75068459 2.02006013 2.20336752 0.00555917 5.71842078 2.00496918 3.53102194 5.38408449 2.07667590 -0.16279782 1.39201120 5.25642779 3.22628659 1.84521766 5.15511630 0.04682766 5.33742413 5.62021429 3.83515419 5.23208198 5.23121050 1.65860803 0.50641912 2.21032623 5.44681822 0.16900361 1.59341360 1.61786286 3.72203370 1.91959307 5.47499904 3.69886728 2.22354388 2.09563318 -0.16620607 5.13521184 5.53664192 -0.35584197 5.03296940 1.65778271 3.15270635 5.05682076 5.10710902 3.70363893 5.04768468 1.55041951 1.91588323 0.02567219 5.51791227 2.23711812 0.27425378 2.17370324 5.65587956 0.13039831 5.15652393 5.56743702 -0.06250130 1.74006757 1.56885984 3.54203091 4.87128293 1.84686760 3.16504293 1.89698596 5.38563501 3.25587235 5.45219245 5.19460865 3.24374435
-0.41399867 -0.07426744 -0.08447751 3.70792595 -0.01500033 -0.35933969 0.00879097 3.55585342 -0.04185934 3.63958701 3.59827013 0.32977723 -0.09008423 -0.08551789 3.53625849 3.50416053 0.15380279 3.25190502 -0.14463093 3.90183146 3.42566523 3.48403796 3.57185655 3.73239113 0.03009901 1.73576314 1.93128961 3.58052498 1.69258237 1.50924397 0.03573153 5.35326427 1.96428968 3.33309819 5.33875701 1.60113080 -0.02311061 2.06618883 5.27051970 3.27319280 1.76781667 5.33031745 0.13393581 5.33879910 5.76298163 3.45048915 5.31457734 5.18715724 1.50928758 0.04591191 1.80216641 5.50365980 -0.22143941 1.68962899 1.65432102 3.59245872 1.83399396 5.15841963 3.39149205 1.71017279 1.79426227 0.54186817 5.17740838 5.28421318 -0.36802848 5.34157280 1.92083995 3.82619758 5.35770948 5.16552427 3.26745665 5.36359080 1.70137548 1.64721863 -0.59812533 5.52021374 1.81315637 0.06450825 1.46076483 5.40814634 0.26330919 5.43420421 5.67966488 0.04128552 1.47241275 1.53785422 3.48920770 5.00186139 1.77647716 3.32004561 1.90099201 5.22270105 3.61246390 5.31127699 5.13616541 3.63709249 -0.07122078 -0.15476642 -0.06282897 3.87434557 -0.19196406 -0.47963921 0.26621753 3.55733872 -0.29741502 3.84511585 3.61094821 0.17611686 -0.34348383 -0.11647247 3.71121987 3.40262052 0.09591412 3.47415844 -0.36920731 3.80367283 3.55877153 3.34227106 3.47815353 3.99648862 0.26552974 1.82113719 1.81179969 3.80196739 1.78262091 1.30354768 0.29397189 5.32918952 1.85584960 3.49240899 5.17186790 1.31979710 -0.31793838 2.11347674 5.21291668 3.02801357 1.94195494 5.41601600 -0.13307129 5.47131160 5.69475035 3.23686762 5.07218732 5.29723890 1.85303835 0.01683259 1.72636120 5.57076674 0.06105736 1.50125682 1.97881099 3.66990551 1.72820223 5.41659648 3.40415654 1.51654443 1.55695432 0.74804709 5.26080960 4.98592717 -0.26577229 5.33379960 1.58455872 3.73224517 5.43392491 4.90937657 3.32367655 5.49886054 1.77842141 1.71340886 -0.82445684 5.72614369 1.81586613 -0.23870986 1.58971742 5.46867236 0.04688958 5.69409776 5.54310467 -0.02017034 1.22787290 1.48993135 3.54599241 4.74576353 1.68085834 3.41443570 1.59147933 5.17270778 3.56697198 5.00999786 5.12288867 3.56072546
0.20751086 0.03740000 -0.27860235 3.71290515 -0.23753734 0.22943655 -0.00755254 3.80462158 0.08815358 3.63059092 3.39587692 -0.00483750 -0.22395613 0.00804013 3.28135602 3.43878625 0.13492396 3.32965694 0.16925142 3.64925817 3.72530180 3.20420237 3.61265217 3.52725413 -0.18336669 1.53965349 1.75636791 3.39428584 1.82039970 1.65492539 -0.29104855 5.37302528 1.87411594 3.47397000 5.15031196 1.92434890 0.19879340 1.90389615 5.57271013 3.58863782 1.63798809 5.32230782 -0.18548627 5.08293705 5.34947333 3.22837500 5.39986985 5.38011752 1.53140148 0.19853362 1.83541767 5.43165662 0.05639713 1.76227871 2.04446067 3.31181156 1.53074231 5.48000048 3.47926247 1.72308235 1.82745851 0.13484460 5.60973012 5.29376727 -0.09478023 5.38423510 1.80482807 3.50213020 5.74480292 5.55981339 3.18934495 5.29124366 1.92645509 1.81266269 -0.12985930 5.26902882 1.58302482 -0.20651058 1.77488534 5.43041696 -0.50183899 5.10964728 5.41765476 0.00867862 1.99422643 1.70737986 3.73322927 5.37893385 1.75333587 3.46882246 2.11563242 5.18199503 3.36219592 5.29860609 5.23069546 3.32771430 0.38338543 0.13119398 -0.04738992 3.72161192 -0.49208920 0.23768084 -0.02474084 3.44757650 0.13118341 3.72025497 3.20759894 0.17755121 -0.35571770 0.17088924 3.13408742 3.11400719 0.16789606 3.25281622 0.06517864 3.80812370 3.57701775 2.99740946 3.85689787 3.42420160 0.00528762 1.30814309 1.93985905 3.50556806 1.58390657 1.73768976 -0.25923002 5.15683781 2.17025194 3.55576588 4.87853582 2.04525042 0.24839743 2.24756095 5.53182368 3.51504934 1.87574705 5.08336734 -0.07213817 5.33706561 5.25050812 3.17496026 5.72326176 5.44752144 1.68177220 0.05214319 1.98758633 5.62636185 -0.13245744 1.69838796 2.09780354 3.15121966 1.72474396 5.60849302 3.27416580 1.96347229 1.63378461 0.31416874 5.44625733 5.38632342 0.01257729 5.19606417 1.90801307 3.61920681 5.55734166 5.41420189 3.29105205 5.06205335 1.97306749 1.73559379 0.17114593 5.41794982 1.40418631 -0.03396691 1.73811931 5.36334560 -0.23303388 5.33497721 5.18363572 -0.06460151 1.90925619 1.88973605 3.59780829 5.30213635 1.77878870 3.21151327 1.93085266 5.33095458 3.09108380 5.03982707 5.45374843 3.45302698
-0.05356862 -0.42133438 -0.25018764 3.80864001 -0.05080912 0.08983146 -0.10045567 3.78055541 0.00376164 3.48632665 3.62130436 -0.20024488 0.22317272 0.00545693 3.55328818 3.44000405 -0.01900680 3.26609499 -0.29042117 3.53633812 3.43275172 3.84269309 3.56218631 3.61005147 0.23130636 1.75831568 1.98634124 3.31985418 1.91689165 1.74741889 0.26358744 5.22168488 1.53827207 3.68688614 5.63990197 1.81966308 0.06758973 1.73757521 5.42512733 3.43316507 1.80682372 5.42590698 -0.12557782 4.99891768 5.36389261 3.52173818 5.78938312 5.49173846 1.91950133 0.03018859 1.86455505 4.82053660 0.11536684 1.87683541 1.67693870 3.50218342 1.88084814 5.28826463 3.54889659 1.88689518 1.67765291 -0.23165265 5.03718378 5.37936486 -0.11249552 4.96342596 1.54908523 3.58928921 5.44670739 5.25332059 3.75038219 5.31570121 1.59699313 1.74433729 0.05097430 5.26369915 1.85181382 -0.10948626 1.62669816 5.24861924 -0.02575637 5.56374913 5.37586530 0.11188339 1.73569986 2.04523886 3.37804127 5.25380508 1.71861657 3.67023557 2.27333942 5.46409207 3.48834221 5.46648649 5.44244565 3.58898869 -0.20241268 -0.31767206 0.00233242 3.63543302 -0.22305240 0.30147406 0.12924118 3.74317424 0.26029321 3.68238845 3.62370135 0.07978061 0.11523868 0.06225493 3.34686451 3.19655495 -0.04107484 3.09511787 -0.39687714 3.70656020 3.30411732 3.97074112 3.62249492 3.28309367 0.31850594 1.55286219 2.10370136 3.22769500 1.66854844 1.91356660 0.12368658 5.19995460 1.84353198 3.56675875 5.45369956 2.06198145 0.09581877 1.83567313 5.09365451 3.58067879 1.81261761 5.22654330 -0.38568540 5.13280470 5.18694872 3.36124811 5.62771399 5.35194260 2.10261067 0.25726185 2.04990698 4.92209442 0.17968428 2.17952986 1.62973674 3.30204899 2.13876737 5.11695364 3.56306666 2.14425843 1.70493864 -0.18941677 4.72046875 5.23935563 -0.27019646 4.73171569 1.50981522 3.63347990 5.12596483 5.25016178 3.66749771 5.06225196 1.88860419 1.84299072 0.23133766 5.20850802 1.79043503 0.23724743 1.44938919 5.07326047 0.15269328 5.49349020 5.35691517 0.39609538 1.70713046 2.21522761 3.16605714 5.42104791 1.79346684 3.50564644 2.38049142 5.42548876 3.22414908 5.45243896 5.50198087 3.32209725
-0.06341303 -0.32442109 0.05964632 3.72333717 -0.06942878 -0.25844939 0.03587305 3.43551437 0.37201046 3.74645173 3.27505629 -0.12529363 -0.03714871 -0.16196216 3.54895297 3.75311688 -0.32041749 3.26897687 -0.08112939 3.14274919 3.50466356 3.53313979 3.75132878 3.45558051 -0.15764589 2.05105092 1.58865024 3.08552365 1.58638862 1.53310560 -0.09499521 5.25988203 1.72100535 3.55006642 5.56310385 1.73387463 -0.04046306 1.79210852 5.53625897 3.19809407 1.56228865 5.06730009 -0.14938729 5.26669083 5.26126535 3.55704420 5.41986462 5.08410020 1.84008508 0.24156610 1.94632707 5.32903016 -0.01547107 1.86137893 1.51533380 3.50662625 1.96149424 5.08893639 3.64189756 2.11222557 1.62813792 0.07007517 5.45889187 5.68704649 0.20356674 5.20890451 1.64938515 4.09992904 5.24312946 5.18262815 3.76040620 5.20157824 1.76204551 1.88817399 0.07274653 5.27900817 1.62828894 0.04360704 1.80927536 5.39077231 -0.28055023 5.21721080 5.43980713 -0.09457826 2.20297777 1.73193546 3.36418041 5.26153436 1.76198653 3.47898484 1.63090910 5.23053112 3.51792512 5.49074693 5.56461815 3.52791954 -0.26955811 -0.28937119 0.17756240 3.51930092 -0.25703194 -0.16500722 -0.22711784 3.60805859 0.42788117 3.57987351 3.32784314 0.18622789 0.08500091 -0.22884881 3.30616386 3.97574724 -0.45995035 3.19486574 0.17562797 3.12581720 3.26995154 3.64801052 3.67751699 3.21508621 -0.36536465 2.12332754 1.73703346 2.94590466 1.39670154 1.65726657 -0.31731719 5.19415413 1.99447700 3.43350862 5.42115380 1.88473855 0.13485894 1.96243275 5.29312292 3.29049314 1.79024099 5.13351327 0.17101633 5.20062959 5.41381413 3.81594439 5.40995760 5.01310249 1.60404432 0.18298110 2.10443365 5.04753813 -0.08305835 1.97852402 1.35654930 3.61603212 2.12738535 4.74126292 3.65755290 2.06005324 1.80935786 0.17429512 5.30369234 5.80541382 0.43213361 5.24830815 1.88374567 4.18489732 5.18887550 5.39399769 3.81023839 5.10375739 1.54405920 1.81960257 0.14389841 4.97947758 1.55548621 -0.07651543 1.73464953 5.14466129 -0.24247768 5.03295230 5.16921301 -0.02783906 2.23661043 1.87268598 3.17338902 5.56521234 1.65229945 3.59215265 1.86153717 5.31839053 3.41836732 5.80361313 5.65857509 3.42401932
-0.20375574 -0.16234168 -0.46033008 3.69703820 -0.33620096 0.02513260 0.26746381 3.30163000 0.08796470 3.36603728 3.54094226 0.10989973 0.17250868 0.04749365 3.25035780 3.75983652 0.06363646 3.59346831 0.11681036 3.37286840 3.47512248 3.31898534 3.44166284 3.73513627 -0.06062280 1.98583203 1.65131461 3.71109935 1.90988393 1.77606961 0.23745408 5.34429783 1.92533052 3.53954432 5.39509718 1.95298081 0.11378848 1.74943213 5.42410576 3.61546287 1.86518061 5.08193782 0.11451310 5.14295775 5.41925964 3.50860146 5.18507067 5.54499470 1.67087192 -0.02285174 1.67002685 5.40024563 0.11593408 1.72183787 1.66308547 3.63756100 1.81000562 5.30454545 3.40477111 2.05656898 1.85089534 -0.30041345 5.31345142 5.52863934 0.26996308 5.26448838 1.73500933 3.33223300 5.43063966 5.29057083 3.48085890 5.42779625 2.21748350 1.56853652 -0.06301523 5.32412275 1.80230293 -0.09003116 2.08273097 5.18758246 -0.02002326 5.35266640 5.57966271 -0.21526824 1.48861714 1.92064098 3.78360688 4.69603480 1.70779448 4.01087224 1.48755225 5.18482871 3.48411118 5.47550438 5.53229486 3.47456127 -0.35656771 -0.32879994 -0.57226215 3.70658008 -0.22662463 -0.17946427 0.28234114 3.22409472 -0.13460705 3.17195756 3.37214624 -0.02671482 0.28609144 0.14556861 3.48561896 3.92363961 0.03047321 3.86902459 0.22149737 3.39536290 3.76847902 3.37630743 3.50508925 4.03640904 0.13820949 1.79215597 1.44164097 3.88028328 1.88360959 1.59347528 0.11716145 5.27499402 1.60004666 3.39212447 5.43639650 1.64095290 0.18650506 1.76058874 5.66106312 3.72594099 1.83547271 5.36053261 0.08210474 5.33851369 5.57182224 3.48578281 5.36155379 5.76789752 1.65569269 -0.28427849 1.44714902 5.38103684 0.04568449 1.36938386 1.59500377 3.61055433 1.52860822 5.41342736 3.44542448 1.82785891 1.92333307 -0.23971960 5.59497335 5.44271184 0.34508548 5.58753175 1.78344945 3.39823999 5.70688712 5.51191137 3.58145558 5.60909348 2.33005940 1.69955269 -0.24930789 5.39601151 1.63621654 -0.26268218 2.05233396 5.13962563 -0.34061306 5.29202256 5.55379164 -0.47924635 1.69572445 1.96237126 3.91107887 4.63857969 1.59037965 4.24854909 1.43399196 5.34893587 3.69414578 5.70603105 5.61413147 3.58756823
-0.05981973 0.29876883 -0.33335837 3.48314691 0.01396222 0.07317452 0.00978562 3.78481944 -0.25116174 3.54395332 3.58261605 -0.25323909 0.02969127 -0.11512447 3.36340886 3.52488503 -0.08682791 3.46358193 0.15683041 3.33972436 3.56039500 3.70108939 3.66419090 3.73051179 0.06007178 1.49017623 1.66416733 3.54279686 1.75171494 1.90626942 -0.15717447 5.58010215 1.87139131 3.54039888 5.46882047 1.99058133 0.33623850 1.68761920 5.41732283 3.61520587 1.73589436 5.29668029 0.12110881 5.37214978 5.33863833 3.32246821 5.13859305 5.41076506 1.74421538 -0.12279623 1.75512579 5.44544962 0.02280912 1.95633009 1.78583902 3.64306424 2.01305918 5.34688266 3.53058989 1.89138416 1.75838655 -0.20086415 5.17877296 5.12935514 -0.13982741 5.40459722 1.69899582 3.63326496 5.68683245 5.06952123 3.39645938 5.36123618 1.89922516 1.79846764 0.12372972 5.26298064 1.85691548 0.18528432 1.93019347 5.32756159 0.26003077 5.57105434 5.48667089 -0.18044234 1.52334261 2.17403399 3.53640522 5.11197671 1.71307770 3.52384400 2.10089451 5.70127435 3.51256518 5.25940391 5.16219726 3.50044596 0.09908511 0.11779600 -0.17612702 3.38636230 0.02118671 0.42551702 0.06638424 3.71396682 -0.03584193 3.35191477 3.40815571 -0.00227764 0.18297247 -0.15777074 3.13969906 3.44808224 -0.10462838 3.21068164 0.19023176 3.34452708 3.23888248 3.80083546 3.78066258 3.50975427 0.24430541 1.49737579 1.85618558 3.49962902 1.73657660 2.20818108 -0.29848057 5.47082778 2.19186746 3.35485692 5.23223090 2.18291691 0.51244035 1.82073485 5.24754954 3.68980451 1.65547033 4.96536959 0.09681178 5.40747176 5.02405549 3.33489001 5.16408964 5.10910971 1.54920626 -0.16405928 1.95287872 5.34872624 0.01165942 2.21323720 1.56686390 3.46438165 2.20141525 5.54344959 3.67570558 2.14745453 1.90103735 -0.36286187 4.94897243 5.12450026 -0.20048272 5.13166518 1.88549014 3.51621509 5.42162843 5.24659604 3.56012151 5.15244478 1.99385329 1.97853800 0.29320141 5.19141141 1.66495166 0.40157921 1.97706876 5.22081778 0.51589030 5.57959176 5.68710177 0.02158036 1.49042201 2.18209976 3.29608080 5.07239164 1.70588947 3.27402076 1.91947502 5.80935365 3.33725221 5.28590051 5.16985033 3.24776560
-0.01579495 0.16332268 -0.17267727 3.64366106 -0.02592360 -0.29226784 0.03187958 3.40541967 0.11250123 3.57427842 3.46151364 0.26709508 0.06233314 0.07820052 3.69293549 3.26200402 -0.07170465 3.38038399 -0.11466242 3.52009265 3.66790910 3.47432510 3.76857166 3.64262238 0.28524183 1.63687771 1.90668626 3.42173458 1.68817147 2.18418604 -0.33252281 5.43963624 1.81679150 3.68959914 5.30258282 1.64917970 -0.18319331 1.95559042 5.49649345 3.91124477 1.73501287 5.28655962 -0.20325876 5.35733937 5.03210241 3.83375229 5.31980573 5.54470746 1.51939667 0.17045660 1.80784852 5.50737925 -0.03690142 1.76397316 1.71222165 3.54851231 1.83802578 5.52409233 3.39010276 1.49317534 1.56109771 -0.28683515 5.46089774 5.08597837 0.11701833 5.42394525 1.74576970 3.38585589 5.02915860 5.38028577 3.94386302 5.57486436 1.64527102 1.87248464 0.34262582 5.34286333 1.70769800 -0.30594354 1.89636787 5.35323881 -0.12681563 5.16060641 5.19230274 -0.15709561 1.97041044 1.57981838 3.47000311 5.27902986 2.06944195 3.81568226 1.96509261 5.85549001 3.76578662 5.51844243 5.23208744 3.64960657 -0.12542751 0.40399147 -0.36328264 3.65572912 0.15284715 -0.48946951 -0.06953772 3.56387544 -0.02943069 3.49615360 3.63929854 0.08482502 0.11433084 -0.18124605 3.82913266 3.32374780 -0.36524208 3.58136365 0.02667775 3.26345992 3.88177761 3.56023210 3.53786201 3.84443413 0.19089706 1.94083261 1.72596955 3.45940583 1.87871103 1.96277344 -0.32908056 5.67265203 1.64587321 3.76168543 5.57129050 1.51049943 -0.16346991 1.82169933 5.71620544 3.84031266 1.43690185 5.47899726 -0.26919759 5.02595365 5.11934053 4.03004939 5.01654946 5.60928566 1.38871416 0.38286463 1.72384407 5.37088490 0.18059740 1.59177137 1.54813301 3.79023817 1.80382628 5.47849146 3.48645648 1.22310025 1.49836990 -0.54956520 5.66529448 5.06386277 0.15061918 5.71088825 1.96232091 3.28555214 5.25079584 5.36927216 3.70489059 5.66721795 1.58497849 2.05299949 0.15926058 5.21508574 1.91595386 -0.40678464 1.91388723 5.54138598 -0.26763858 5.04134576 5.47503952 -0.21424522 1.78318609 1.47304754 3.68817301 5.37667614 1.99163243 4.04090672 2.12624671 5.70688021 3.92313571 5.62322014 5.01819641 3.67373807
0.29905427 -0.24588513 0.09402361 3.69011519 0.04135567 -0.04370564 -0.18289276 3.67398242 0.05346787 3.64772361 3.55259431 -0.22152277 -0.43243106 0.04404432 3.60906832 3.57973573 0.05305225 3.74038982 -0.01409289 3.47987236 3.88267476 3.56956308 3.79253180 3.26591207 -0.08031646 1.91230298 1.87614954 3.69280431 1.60870700 1.64855458 0.10137184 5.40367169 1.97201055 3.73854796 5.34431361 1.72516644 0.06628492 1.89992260 5.19758983 3.53311826 1.70097768 5.13190710 -0.08402568 5.42597479 5.67982919 3.51233979 5.49555558 5.27104080 1.85792407 0.21792295 1.98566686 5.35040756 0.20111403 1.44607517 2.01045823 3.32954605 2.13591976 5.26333516 3.27654760 2.07269639 1.96320490 0.03027759 5.09031283 5.11281023 -0.19275780 5.54891857 1.94422658 3.62583357 5.38996980 5.44802529 3.19818039 5.32930373 1.54427832 1.60725836 0.24015235 5.25902147 1.45883172 -0.15316581 1.89535625 5.07984289 -0.04929315 5.42204359 5.14457160 0.11813321 1.81553706 1.53542901 3.44594449 5.12894446 1.75161255 3.68911130 2.07026396 5.17834250 3.87333947 5.26954662 5.19779133 3.33419577 0.34400025 0.07299242 -0.05812608 3.41629435 0.19617413 0.06291339 -0.30323296 3.97919101 0.06919565 3.56565345 3.79634231 -0.29686751 -0.23098663 -0.16602142 3.70800723 3.69876284 -0.20431261 3.74218805 -0.00683019 3.20184749 3.77243180 3.81873966 3.65161127 3.46799105 -0.10364514 2.13264531 1.63701357 3.55462059 1.89857096 1.71052509 -0.03257583 5.57947649 2.08375682 3.56025128 5.51323839 1.80788087 0.27942769 1.77422218 5.01732883 3.49630189 1.44531582 4.87302969 -0.16372630 5.11848739 5.71393822 3.57296079 5.31355627 5.12983003 1.60127540 0.35809284 1.88443355 5.16910837 0.34060391 1.51979845 1.81173290 3.39720333 1.99227590 5.28860735 3.61659960 2.04876896 2.11299590 -0.14720265 5.03950547 5.05496874 -0.50744929 5.44491863 2.10500422 3.41693591 5.46502645 5.60291199 2.89484043 5.34401377 1.35201770 1.71525800 0.15645414 5.30526863 1.72350283 0.06735807 1.94385738 5.26770900 0.14339852 5.41226362 5.42221789 -0.12067628 1.98593369 1.31583741 3.54065670 5.24780147 1.52809113 3.72384844 2.18052896 5.03278087 4.02645290 5.39561684 4.98909307 3.35607799
-0.17803528 0.15660748 -0.17525831 3.70627491 -0.16237469 0.36314167 -0.13059366 3.87067094 -0.08067344 3.37430489 3.40997201 -0.05097024 -0.13140816 0.35772782 3.34998009 3.66697396 -0.27576483 3.55950380 0.06408624 3.79468718 3.31617958 3.42223385 3.53182271 3.44626761 0.05372086 1.52562194 1.55540731 3.68344911 1.67933667 1.93923071 -0.23286891 5.40983598 1.82215272 3.43163631 5.29788982 1.54423561 -0.22082000 1.71423680 5.38375794 3.41389046 1.92546010 5.64052709 -0.02294232 5.20223879 5.25364355 3.53280683 5.39388655 5.17755653 1.84820835 -0.06386628 1.66753432 5.12198855 0.07062888 1.65256945 1.88840382 3.53994194 1.99528065 5.33283071 3.68047830 2.15985793 1.61376398 -0.03812136 5.56184764 5.20743083 0.10106925 5.45149507 1.75247155 3.40411247 5.42220461 5.30021127 3.80192582 5.50940220 2.17765121 1.90759401 -0.12838334 5.38920528 1.87663799 0.03967031 1.54702431 5.44686806 -0.18748736 5.27076127 5.01608039 0.27360328 2.11330035 1.79171333 3.52018243 5.30772255 1.67927969 3.42573199 1.65785823 5.39681257 3.71338151 5.21479608 5.21435536 3.75713607 0.03334108 0.17455988 0.07142211 3.73242901 -0.06646537 0.70413281 -0.07504284 3.71770498 0.12118129 3.46187181 3.35875885 0.17535629 -0.39001606 0.41978223 3.16969896 3.71907364 -0.22585107 3.21274618 0.18491610 3.93924491 3.11754488 3.43852163 3.60351648 3.15280036 -0.15873950 1.55335661 1.75352733 3.74081423 1.89535719 2.20316510 -0.16821366 5.46185175 2.11055619 3.42150907 5.44299626 1.72613749 -0.30308783 1.70558383 5.11041568 3.30890850 1.89770952 5.33482406 -0.07248449 5.36184442 4.97534644 3.75685233 5.32327871 4.89766295 1.65224017 0.02664366 1.87031854 5.29514275 -0.02010139 1.80974835 1.88217914 3.51980568 2.27692873 5.28428184 3.79371399 2.45296915 1.68363465 0.07156998 5.30288636 5.22187733 0.19059962 5.23479299 1.70794764 3.35552969 5.13261072 5.39191423 3.60082142 5.28407570 2.27721585 2.01615409 0.13158277 5.46787861 1.71442036 0.26977671 1.56208088 5.56424881 0.05676419 5.40822845 4.92917780 0.55707281 2.26685827 1.90923701 3.27274935 5.25038253 1.65266956 3.18848753 1.78746367 5.20425668 3.43130432 5.33311343 5.16008304 3.48301584
0.28028367 -0.11711766 0.13090243 3.93032066 0.00018901 -0.12426237 0.28074419 3.34434510 -0.40335693 3.14118147 3.35295217 -0.26145631 0.23859207 -0.02976501 3.51919377 3.30390479 -0.25267466 3.64089732 0.06860667 3.57298822 3.59845743 3.35578069 3.60684307 3.33385331 0.24988369 1.73067588 1.85381967 3.64677486 1.52592928 1.89100006 -0.17346104 5.47553855 1.64324271 3.61379481 5.27002729 1.88184306 -0.08557481 1.68675738 5.46698598 3.53361774 1.65916682 5.30986851 0.18739135 5.29837570 5.75200639 3.64871617 5.49896305 5.41755301 1.88928033 -0.27535006 1.93689998 5.20075572 0.25970913 1.77593304 1.91356431 3.56488126 2.16902999 5.30978768 3.60327716 1.86134051 1.81948821 0.05331417 5.47609567 5.25712633 -0.10638196 5.14022771 1.78147256 3.53431930 5.29243064 5.42803346 3.56033543 5.65919310 1.65046676 1.69057361 0.07724675 5.34884891 1.69027851 0.05588229 1.84310238 5.44224939 -0.04638636 5.20312653 5.50311895 0.23280624 1.76063393 1.56771733 3.46459084 5.42091202 1.31950633 3.54368124 1.98127774 5.08787946 3.52775579 5.27603430 5.09596839 3.43719380 0.31145386 0.00525188 0.32798595 4.06908281 0.24986492 0.04937729 0.33975075 3.57139430 -0.30877441 3.32641248 3.57477053 -0.20178943 0.10141310 -0.30204850 3.55082376 3.27990250 -0.59882945 3.74890426 -0.00202379 3.31577500 3.51167034 3.19520229 3.41489073 3.08122723 0.20282249 2.05931767 1.79089677 3.73438035 1.72848930 2.03286620 -0.00182152 5.67031411 1.49195700 3.89514196 5.44593212 2.04063910 -0.15755900 1.45161219 5.22366388 3.36938642 1.39066539 5.48341073 0.18592211 5.03515399 5.80815170 3.60060975 5.26896992 5.35283660 2.01448910 0.05041905 1.95013581 5.33064685 0.51157303 1.88856348 1.89148473 3.82015965 2.23642873 5.55864717 3.85389639 1.93556035 2.02288077 -0.18116459 5.32765338 5.28788823 -0.34792828 5.17914835 1.73963353 3.24054119 5.44298868 5.37940763 3.31062356 5.53920895 1.62741924 1.93615636 0.14650748 5.47022298 1.87835783 0.17584367 1.86856049 5.74470308 0.10709912 5.34717867 5.74267656 0.22529160 1.78558854 1.45387372 3.17630720 5.41757643 1.06930701 3.44784472 1.84335027 4.88766638 3.52448138 5.13801856 4.98147395 3.25663592
0.03063564 -0.14291719 -0.13613902 3.46073978 0.04302419 0.01263972 -0.04372948 3.75583302 -0.16155517 3.43758531 3.58966331 0.34384406 0.23575005 -0.18118306 3.70892496 3.35780832 0.05393640 3.18562939 -0.22457738 3.80197752 3.37792425 3.54037084 3.59071241 3.30984570 0.00084743 1.49165529 1.59305167 3.55406957 1.86437306 1.70975390 0.06284327 5.36191632 1.99651792 3.53933033 5.14996513 1.81563222 0.25227342 2.14361367 5.44509491 3.42270646 1.84500308 5.20962599 -0.21128646 5.58428363 5.38267723 3.49231985 5.19366048 5.34754873 1.73603028 0.19734063 1.71227891 5.35966733 -0.07564350 1.75175408 1.67380166 3.72314945 1.70688013 5.38419936 3.85466366 1.58127720 1.69667124 -0.20764037 5.50240387 5.37700983 -0.18649774 5.31149136 1.87031155 3.43584309 5.20916087 5.81207927 3.70262639 5.30845393 1.73316564 1.82743629 0.20072310 5.20575871 1.48782177 0.16799220 1.72714174 4.91365295 0.32724564 5.16147364 5.45150969 -0.14141226 1.97185114 1.88550089 3.11088173 5.40433489 1.84572179 3.40262943 1.76528045 5.41304400 3.46171418 5.18886935 5.28401768 3.55102164 0.12468545 -0.18518926 0.21140942 3.68705274 -0.04663569 0.12022250 0.11979872 3.48235931 -0.27585212 3.69523838 3.56767917 0.32913432 0.10807441 0.09840626 3.60210647 3.04206472 0.04213599 3.17988790 -0.47669301 3.84043336 3.30253873 3.40330969 3.83172814 3.16940814 0.22157284 1.44772786 1.84640972 3.54034393 1.70630276 1.88104187 0.02932856 5.18428379 2.27703243 3.59876344 5.05928259 2.06491337 0.02569980 2.29449119 5.38590444 3.20858857 1.82514587 5.05271663 -0.36522964 5.81724948 5.17527603 3.34275062 5.37948819 5.29204304 1.86754036 -0.00596304 1.91971641 5.68319536 -0.23939619 1.75332555 1.75411685 3.53068007 1.58809557 5.48252135 3.61786100 1.48049265 1.54883683 0.03990374 5.39278712 5.26382172 0.12867883 5.19004703 1.53559986 3.55095638 5.11572332 5.67065293 3.88250402 5.26211606 1.84457604 1.66204407 0.39953710 5.13817151 1.15494678 0.29014857 1.90610316 4.93304978 0.51573993 5.39556210 5.36453686 -0.12740091 1.90147926 2.18492027 3.12896562 5.36719892 2.08321165 3.33882443 1.64708323 5.61415719 3.20425868 4.96200764 5.30992244 3.45159758
-0.11083699 0.11845797 -0.23149418 3.56923441 -0.09956003 0.05195145 -0.14510764 3.46388247 -0.03188883 3.59210009 3.55909511 0.22050384 -0.22382583 -0.09703488 3.58440757 3.36156012 0.12143103 3.79453123 0.44422342 3.22876597 3.76687076 3.89646712 3.54212489 3.38855470 0.15169543 1.62753251 1.87006539 3.69435665 1.78825523 1.93992329 0.05727229 5.15182714 2.04416165 3.54756067 5.44847232 1.97695893 -0.00095476 1.56973296 5.76082996 3.69978568 1.65313035 5.25256005 -0.04647625 5.49537729 5.57556720 3.51011566 5.40833679 5.08018300 1.90508361 0.18018869 1.54412186 5.39690826 -0.16942405 1.61798374 1.61480968 3.24889985 1.79977832 5.63269106 3.54852216 1.77751248 1.73272676 -0.04780568 5.78339271 5.15796390 -0.02793255 5.09565328 1.84945458 3.36463713 5.31374565 5.36158068 3.43456519 5.26394589 1.71611417 1.89456925 0.02799880 5.40113222 1.90343233 0.42926079 1.82613736 5.40258082 -0.43112143 5.46292598 5.37269097 -0.08156264 1.61959303 1.48282100 3.41777635 5.40736905 1.75678914 3.62961332 1.55090166 5.41335836 3.37955133 5.28012879 5.58744718 3.68476989 -0.17524974 0.31225390 -0.37913595 3.70967434 0.13356935 -0.14470630 -0.37530059 3.54976911 -0.18738557 3.33105452 3.80985949 0.18972830 -0.25191881 -0.27096016 3.77770927 3.46870303 0.00224049 4.07632729 0.49018263 3.03388373 3.99044470 4.04562148 3.39490041 3.55372032 0.18823740 1.59956426 1.55843708 3.57707993 1.77476317 1.71450139 -0.04814728 5.27517646 1.84164224 3.41478963 5.55991915 1.65499057 0.02999304 1.34538591 5.98829947 3.96085389 1.58569491 5.38577333 0.02019711 5.37159492 5.86919773 3.45727431 5.14414386 5.14571589 1.95926276 0.37880557 1.30315573 5.46395592 -0.13097727 1.30341654 1.50968718 3.35198155 1.56752647 5.44596084 3.55899158 1.47752825 1.56706450 -0.15484881 5.93920687 5.14238787 -0.20875135 5.30493696 1.94228686 3.41839222 5.63658259 5.45041067 3.22665800 5.48041314 1.58364247 1.85894340 -0.26786537 5.33963101 2.12552539 0.17641936 1.58430491 5.52600042 -0.66109658 5.41893729 5.37784519 -0.43271026 1.74718037 1.18316787 3.57497363 5.54902221 1.51002249 3.82181535 1.58351171 5.27031518 3.67143132 5.20476364 5.34836087 3.92977454