-245.59640441
-250.63922173
-246.89472952
-250.57270402
-250.73018755
-251.22086441
-245.82514434
-252.78211460
-244.94039395
-251.60037647
-251.89479864
-252.38205835
-252.60705744
-252.75592922
-247.98199096
-254.08503354
-245.35647999
-249.67617424
-250.97860500
-246.97042160
-254.28685647
-255.76389653
-253.61894670
-250.88662165
-251.39098436
-250.85409389
-254.22391567
-253.55565947
-253.16670854
-236.20923643
-246.96385930
-252.49817054
-251.37648940
-252.11212134
-248.92963653
-244.55017473
-248.82948454
-251.69575109
-255.16484740
-252.67259631
-251.77495954
-255.18217671
-249.16533502
-251.10111922
-251.82265213
-252.81745116
-255.27752106
-251.64126039
-251.57316846
-254.10961216
-256.05447349
-250.16457114
-256.88607087
-253.21166236
-253.34717371
-254.05270508
-256.97095600
-250.90767405
-251.58491810
-247.44994276
-251.41927302
-254.32175415
-251.27898476
-246.71180614
-252.95476647
-249.50102015
-249.85180321
-254.35941466
-248.90323770
-253.63501371
-250.11604528
-242.99669972
-254.33547222
-253.72632820
-247.22859477
-252.28510789
-250.39832503
