2.64903956 0.54586232 -1.89218664 -3.87242944 3.21559077 2.42802680 6.39479964 4.11632724 3.30420174 -0.70458038 0.59017134 3.30786686 -1.53111684 4.61735638 -1.86809048 -0.99708850 -0.00977411 -0.14073250 2.34690137 -4.22383042 2.87661480 -3.34735371 0.47663884 1.68438767 7.87412016 -6.48766736 0.65494749 -2.20726264 -1.31227194 -1.44384694 0.08210343 -0.13878855 -4.47508912 1.32276218 -0.32014664 -1.52127792 6.89655944 -6.84847832 -2.32637796 1.47756827 -0.14269078 -0.98618779 2.54808025 -1.22538717 9.18602768 -1.76757828 -2.92296065 -1.33393452 0.22804673 0.87920229 -1.51823159 -1.58946500 0.55890085 2.88569445 0.70378694 -1.52513454 -2.49568034 -6.45524197 10.98340060 -6.66791040 1.14150891 0.86373712 1.59253651 3.62960761 3.61614679 -1.61203146 -2.27944626 0.56052369 -4.39908492 -8.66415894 8.78137435 -9.10602076 -1.52754130 -1.31474039 3.58419321 -3.84025392 -7.06579236 2.56520946 -0.05421560 2.16210091 0.56392209 1.88836423 -2.98464434 1.23142988 0.55089710 0.68565588 -0.24163349 0.47180868 -7.75189290 7.68766938 3.78990819 0.81828287 1.55580229 -5.15812990 0.80292822 -3.08021348 0.15033446 -0.02595250 0.09645138 -0.35420787 0.13353802 -0.21871146 -0.25332633 0.36914207 -0.29176995 -0.03110925 -0.11093053 -0.37951707 0.14253594 0.15978536 0.08152793 -0.02449231 -0.00879878 -0.00592985 0.49642212 0.06657357 -0.07809829 -0.04549425 -0.17241108 0.30251626 -0.44938573 0.05268510 0.01406734 0.07345844 0.01362759 -0.01970307 -0.27223817 0.13223393 -0.18818177 0.05456042 -0.00605688 0.03895104 0.21820426 0.15403553 -0.02266876 0.23901430 0.04669475 0.21835250 0.19552144 -0.48174771 0.55058876 0.23463755 0.20356786 0.14901001 -0.16076887 0.00239369 -0.03022191 0.11614413 -0.01997027 0.04569853 -0.08850343 0.03025852 -0.01229122 -0.84698946 0.56458970 -0.02270057 0.10621148 -0.14714445 0.07749871 0.32108677 -0.15836085 -0.13529289 0.11278689 0.00774743 0.13042869 0.52794263 -0.38274972 0.40239386 -0.07771537 0.00678850 -0.04333004 -0.79831592 -0.16504084 -0.31667135 0.01788113 -0.03479035 -0.00312411 -0.36581759 0.20463723 -0.27054383 -0.01534590 -0.02894757 -0.02903340 0.19985263 -0.21018367 0.40171285 0.14540314 -0.25672354 0.38978528 0.00553468 -0.48848778 0.09747322
-0.73393411 1.31297569 1.98410778 3.00835007 1.40916588 4.54319231 0.32829112 0.55650441 1.43587711 -0.12862968 0.50470489 1.66139517 5.49150872 -3.62167936 -10.67730946 3.06891572 -1.78793818 -2.36024721 1.05628034 2.89311918 1.66923851 -1.15756491 1.70212277 1.34705858 -6.72821126 3.65905554 2.15307073 -1.64573801 0.09764181 -4.93678760 0.25467978 -0.32405001 -0.75350017 0.14792780 1.25798223 -0.92237886 -1.13089181 6.00838039 2.95191325 4.34412155 -1.18861435 0.16453529 1.85320138 -4.41930606 -3.81641228 -2.02496009 -2.60259677 -1.69309344 4.14189312 -7.17336182 -0.21318591 -0.56735502 -0.27034016 1.36047803 0.94292387 0.89777398 -0.14206649 0.01366229 2.87761307 -4.54385807 -3.49165720 -0.64540786 0.06032066 -8.54589853 1.17552892 4.34234785 -2.66058041 3.91485341 0.79986401 0.37513222 -1.69086149 -0.12189185 3.39738910 1.88658788 -1.35429960 -0.85484648 -0.26357778 -0.74829471 -0.26647699 -2.30757265 1.65776609 -0.21063652 -1.09331494 3.84342003 0.49636602 1.61738150 -0.55965879 2.14953860 -3.77785238 4.21649925 -1.05601935 -0.56904176 -0.31250206 0.13321867 -0.03587598 -1.03559817 0.03553055 -0.35421029 -0.24196223 -0.11582441 0.11433752 -0.24352280 -0.01748516 0.05832508 0.04700940 0.00941901 0.04066590 0.02667192 0.01685555 0.24397803 0.84285963 0.04514798 0.07886882 -0.00091593 -0.04597658 0.10725010 0.01597785 0.05277237 0.13932524 -0.06756609 -0.19875592 -0.26799826 0.03374049 -0.43411359 -0.29301760 -0.21258542 0.02590382 0.15364361 0.02254337 0.01735466 -0.01177231 0.00860449 0.21034494 0.26333660 0.05607198 -0.05802692 0.08269897 0.16066192 -0.06656254 0.42075135 0.21884596 -0.19707712 0.58121617 0.04084750 0.04246009 -0.02739149 -0.48646945 0.16152351 0.12803150 0.08536656 0.03606101 0.14569348 0.14667891 -0.17212082 -0.15473509 -0.24788447 -0.43450808 0.66828800 0.55375469 -0.03665825 0.84596920 -0.17024413 0.18603558 0.28044251 0.14248757 -0.02888391 -0.02111729 0.01504889 -0.13447552 -0.20745165 -0.03124009 -0.06879397 -0.08740198 -0.04406178 -0.03705973 0.04341605 0.02212491 0.06239858 0.00262098 -0.09079220 -0.21557110 0.33415937 0.05612668 0.47614141 0.05172752 0.17746787 0.03345243 -0.03050209 0.12294169 -0.10167392 0.11072538 0.16220652
9.92820565 8.18260618 -0.00630446 -2.60628781 0.49796709 3.04677410 -0.20841341 -0.87284555 1.73586573 -1.94805198 0.03630847 -4.07928734 -1.01269756 -0.05089412 1.96513825 -0.47403381 -1.39814220 1.42924461 1.60172982 -4.50030237 2.89860674 0.54198803 -1.30431531 -2.76706053 -2.20758517 1.48206060 -1.68661488 -1.92152144 -0.92043786 0.00731701 -0.31934025 -0.13547090 -2.21379885 1.23571079 1.37358268 1.37394230 -2.20916860 -0.30013590 -2.02992287 9.90824814 4.16515959 -2.71183913 -0.52251666 -0.57841460 -6.29690138 1.23561935 1.60980013 2.13536995 1.88370521 -0.25261166 -1.59216782 -2.97047236 3.05879082 4.77403134 0.54288199 -1.59472630 -0.16760604 2.30691368 1.85924930 1.60204266 -3.33990889 -16.90594956 -7.06120445 0.43926464 2.97582358 -5.69025539 -2.45111265 -2.35504856 1.55745459 0.06033946 1.77800692 -0.35526192 -3.29304235 7.86729564 16.63634884 -1.36452350 0.06041619 -0.81686243 2.89514076 0.27630736 -0.77079343 -6.61244957 -12.14989465 0.97608745 2.24609192 4.45835172 -2.04036087 2.30486034 -0.32845049 1.89543489 -1.68866291 2.21449395 -1.27973074 -1.98091085 1.75141980 -0.46768590 -0.91856602 0.25278415 -0.09759581 -0.05026707 0.08447789 0.04403338 -0.27991157 0.02183263 0.27702454 0.05659279 -0.01449036 -0.05177501 0.04022971 0.00939201 -0.05942786 -0.04291553 -0.01248383 0.00823361 0.07253707 0.05878641 -0.08941232 0.02308786 0.02302797 -0.15841266 -0.02766918 -0.05902550 0.01366117 -0.00345000 -0.03005749 0.02779138 -0.39090717 0.04615735 0.18648210 -0.06469261 0.14843613 0.22469983 0.13660913 -0.02066167 0.01974711 0.40590040 -0.28451126 -0.15529584 0.33171336 -0.19855544 0.11097813 0.18117087 0.27375991 -0.09717142 -0.37253430 0.06685320 0.06164680 0.04108147 -0.49580973 0.24917286 -0.15632720 -0.07698533 0.02877024 -0.19269212 -0.00823681 0.13245295 0.79365283 -0.74771156 -0.29214899 0.37716476 -0.18227030 0.03724505 0.41896501 0.13619422 -0.05973475 -0.02601717 -0.04008127 -0.01582216 -0.17750499 -0.03889824 0.42082445 -0.22758316 0.03784175 0.39053596 -0.04621902 -0.06497368 0.13419869 -0.57294149 0.36720468 0.13291909 0.24447970 0.06485953 -0.01361807 0.05326458 0.07330564 0.00357699 0.27820631 0.04226026 0.10840227 0.14576372 0.01337890 0.12461511
-4.28835604 -1.17430380 3.38696429 -3.25978812 2.80596187 -0.32239019 -0.50019876 -1.42775039 0.97673217 2.20712288 1.40050842 -1.10379202 2.21242384 -0.76096592 5.94107291 1.74797673 -1.37437494 0.73114197 0.22546160 -0.90587279 -1.64260490 4.99070942 -5.90700949 2.34723798 2.17696555 4.69945443 -2.14369423 3.57693547 -2.85041739 1.45739587 4.12505177 -1.08746325 -2.60393138 2.68610184 1.46415747 -5.39606240 -1.32818220 -0.87118148 -2.46165787 0.71792204 0.29360363 -0.27682245 0.06803158 2.17394952 -1.08606679 7.05425401 -0.38757933 -3.95960194 2.08667398 -1.79609156 -0.86218189 -3.95531380 -0.76798403 -1.56192613 -4.59931107 3.20926907 1.41503518 -1.48017714 -0.81835813 0.33767585 2.10901114 0.78644074 -5.79400758 0.14355593 -0.38329132 -1.72933168 -0.02141241 0.12917805 -4.57854823 -2.54187846 2.13319404 -0.55221679 -0.11485595 -1.73425429 3.22364963 0.84042143 0.54516575 2.15709107 -3.64362363 -1.23163456 8.49067972 2.63604299 -2.79665024 -0.58382653 -3.04266105 0.58212150 -1.00954106 -0.89674031 0.56244642 0.91114124 -8.37030698 5.53372608 2.56633367 -1.56185628 -0.04399408 3.72605251 -0.19237557 -0.20267229 -0.24855311 0.05338395 0.05213961 0.02048380 0.08473044 0.40885730 -0.03085091 -0.03476554 0.04921302 -0.11192327 0.10940606 -0.11871188 0.07651276 0.22410818 -0.00425884 -0.00224548 -0.06803458 0.16012214 -0.13390891 0.30804291 -0.35583175 0.10150540 -0.26087834 0.33989931 -0.24785803 -0.09722348 0.16130724 -0.01019715 -0.04799110 0.34170115 -0.47880244 -0.14504468 0.28166567 -0.15863915 -0.08359938 -0.57805046 0.01141765 0.05889428 -0.24870345 0.23915311 -0.13073534 -0.13927577 0.05403538 0.02075714 -0.54406202 -0.13767421 -0.01571993 0.00337075 0.01082448 -0.24147433 0.20313583 0.09459887 0.01736344 0.01656027 -0.03105050 -0.07674587 0.07666376 -0.15216861 0.36898501 -0.29116961 0.38549675 -0.01298172 0.01430837 -0.06296144 -0.15871463 -0.14979905 0.25340995 0.10967370 -0.02378437 0.10876221 -0.06608512 0.13544656 -0.52184009 -0.06948476 0.08772900 -0.12548253 0.06054525 0.19949124 -0.50511276 -0.20409156 0.15800048 0.09145507 -0.04470226 0.02543688 -0.04198470 -0.02997765 0.06691862 0.00270799 0.37534858 -0.30029053 0.62697660 0.31307304 -0.27139712 -0.18204855
1.44246921 6.28586150 0.31686499 -2.32363216 2.24561210 -2.63869795 -0.17707275 -6.21324787 1.16125997 0.18308545 0.18689704 1.24839478 -1.70454317 -0.21681855 -1.43897103 0.72891421 5.69025832 8.65511926 1.98069991 0.00955815 1.25531415 -2.37209591 0.36510996 0.08261492 -4.25801827 -0.78566975 -2.76696386 2.18098448 0.94864073 -0.70482810 -1.73067288 1.97441369 6.05898462 -1.66808599 -9.74550241 -3.44080506 -0.90875381 0.15795982 -0.97267752 -0.35563461 -0.70418678 -0.79080464 1.54124329 3.26613390 -3.89969510 1.10325531 -3.32331557 -0.89867488 -3.82144183 0.29450624 -3.23110338 11.01821959 4.89395992 -1.51637636 1.47821003 2.65674312 -1.91121792 -0.20654182 -0.45371669 -2.45155789 -0.32589413 2.23495432 2.99195268 0.25619362 2.04335398 3.04543956 2.65290840 -1.47455131 -2.04865542 -1.36117665 -1.86538542 1.04791194 0.51406384 -0.46974838 -0.35136637 0.55193916 -0.01104553 0.63235948 4.43796209 1.02958572 -1.06250881 -5.76765848 -1.00799059 0.23243569 1.60025866 -1.84889708 5.33980592 0.51421336 0.39764070 -0.50222144 -4.69327402 -5.50697258 1.19239592 -0.51012414 -1.05414069 -2.63372816 0.11884497 -0.12401044 -0.22016549 0.24663905 0.23712959 -0.22900793 -0.48117106 0.09609118 -0.44915320 -0.06663671 -0.03398764 -0.09388462 0.00423090 0.05014701 -0.03007339 0.67846867 0.06571917 0.40901783 0.03072238 -0.02084682 -0.01527630 -0.12605938 -0.05943437 0.28610024 -0.02448159 0.11577783 0.00591229 0.14870477 0.24208420 -0.06549889 0.23535803 0.00592908 -0.35710405 0.29074002 0.46625110 -0.55429214 0.03571727 -0.01287128 0.13609558 0.15345616 0.00909227 -0.17661454 0.59814317 -0.28555883 0.34393006 0.04666364 0.03730398 0.00871364 -0.32292102 -0.40818815 -0.27763321 -0.29004211 -0.16044586 -0.56112167 0.07336334 0.25001173 -0.32323743 0.09740251 0.00293077 -0.09464838 -0.04447926 -0.01744153 0.23661292 0.08507301 0.14823244 0.15745894 0.04730849 -0.02105017 0.22065157 0.01670094 0.08914417 0.07939377 -0.12189955 -0.08317998 -0.02901978 0.06408974 0.00787778 -0.08221435 0.24697341 0.21901110 -0.16092345 0.06936687 0.02204651 -0.29973840 0.05062409 -0.17501947 0.07802749 0.00414664 0.02567082 -0.07590993 -0.17876633 0.04206647 0.18375882 -0.03482146 -0.05106687 0.08112418
0.87520019 2.07540952 0.15381263 -1.79438954 0.83815024 0.53009105 -1.20604774 5.49059368 -7.67101546 -1.19904360 1.65379292 0.02098500 3.16976845 3.30117959 -1.17474351 -2.93779710 4.14846613 4.82747561 0.55545139 1.74819830 2.67611527 -1.75584924 -0.68879792 1.45358662 -0.81956285 -7.61292296 4.49631104 9.46760589 4.24733010 -1.17030907 0.70861768 0.62744491 0.83481625 -1.39929528 -3.50840553 -3.59701003 1.38596715 1.81605313 -0.87050781 3.08930092 1.38473443 2.84104676 -0.60016525 0.12908793 1.05332199 0.35706986 0.36423121 1.25313409 -5.96301358 -7.51586322 -1.43024771 1.51505631 1.63502698 -3.00273074 3.50931358 1.33425104 -0.58734536 1.34862536 -0.01455946 -3.76583961 -0.45608911 -0.50814790 -1.13692705 -3.18308567 -1.11191157 1.26270271 1.34440787 -5.91303464 0.29444788 0.40385602 -1.66731678 0.09461543 -1.27757884 -0.21804023 -3.48542302 -0.13532250 0.42118765 -0.38479569 0.63674521 0.41641706 3.89298081 0.10182972 -1.81613240 0.26956241 -3.93407740 1.95479171 3.28851473 -1.25563360 -0.78571743 0.51220282 0.21556069 1.73131882 -2.03408594 -0.76742498 -3.95681529 0.55525791 -0.03027307 -0.07130225 -0.02033497 0.06239158 0.02873398 0.00234716 0.36016754 -0.29940662 -0.01855511 -0.00824902 -0.03572950 -0.11073786 -0.01034584 0.11878623 0.18017374 -0.30991417 0.20492086 0.10591322 -0.21977480 0.02637080 0.25765690 -0.05257599 0.09769742 0.14773491 0.31918817 -0.08945371 -0.30098560 0.10269846 0.31584869 -0.17730776 0.27154837 0.07339071 -0.35221570 -0.01957319 0.03299235 -0.07764725 -0.06976138 -0.07459975 0.15885721 0.07353248 -0.02437469 -0.10809145 -0.44265941 0.12829681 -0.30369518 -0.03801026 0.03275823 0.01917082 0.21010550 -0.03090541 -0.14879374 0.26284107 0.02506598 -0.12757802 0.11086929 -0.09209109 -0.12113615 0.40266160 -0.05064208 0.06854353 0.00273833 0.01504215 0.02811894 0.06508906 -0.13983538 -0.11695040 -0.10146645 -0.08651565 0.01599352 0.08879703 0.01928242 -0.03740751 -0.00278163 0.00130603 0.02246790 0.17253576 0.05129676 0.17570558 -0.01073298 0.06707308 0.03391290 0.08643778 0.20805434 -0.03870802 0.02427235 -0.19417739 0.24006146 -0.16661187 0.12302201 -0.12444013 -0.06545916 -0.05209138 0.02616519 -0.64129651 -0.25227175 0.17847725
5.52998418 1.42119400 5.32414030 -1.54943183 3.91983049 0.36450339 -1.32449985 2.21434653 -1.67397765 2.95452551 -1.47540514 0.13744929 -1.61345517 1.15839088 3.16839051 -4.49237912 -6.17685876 -1.72883698 -4.10024396 2.55812358 1.54178293 -0.21990694 4.83520169 -3.17332059 0.36185357 -3.34119081 0.93137053 -1.30311096 -1.49437780 0.25957095 -4.48793368 -0.70882954 -5.12975481 0.42199987 -0.80009827 0.15747919 -0.77930166 0.01737527 0.31287663 -22.96305095 0.86180547 25.72396321 -0.36171455 -0.92495226 -0.95508430 1.80606255 -0.34603856 -4.53666671 2.04226841 1.07287706 -0.75398720 -0.00337676 -0.11307516 -0.04316197 2.72065253 -1.80135582 -0.16722604 -0.28819140 1.91346408 -0.56226962 -0.04374762 1.66069188 -0.47425717 -2.09068101 -3.62938867 -1.72228776 0.41709365 2.38503129 0.68915447 1.41244561 2.07289809 0.29318708 -1.78016008 -0.44100990 0.42928636 -0.52731103 0.17594914 1.11745211 -4.96881022 1.64302960 1.74409898 0.83527491 -4.57356508 1.69301117 3.47761176 -3.96331441 -2.96992313 27.14177170 2.19539116 -24.80542324 3.94764456 1.03911265 3.94894499 -0.17188201 -1.35525268 0.85951508 0.11331033 0.16023328 0.04078439 -0.02560642 -0.08559533 0.03492727 0.00645211 -0.03257013 -0.03647764 0.15450498 0.15671152 0.01734920 -0.04844802 -0.08515486 -0.10362036 -0.16857524 0.05590137 -0.27914533 -0.10270031 -0.01475078 -0.37163148 -0.05562590 -0.05706297 -0.16738204 -0.20124648 0.16664350 0.16261256 -0.01031484 -0.01433914 -0.06459294 0.17226866 0.09931501 0.48776384 0.03648343 -0.01694649 0.04061354 -0.01646501 0.00199484 -0.09740367 -0.45238680 0.16620318 -1.14032440 -0.00493401 -0.01266260 0.06461411 0.01898427 -0.10826288 -0.14415902 0.02599413 0.14776148 0.07127065 0.02342939 0.02875139 0.18350092 0.05832366 -0.00721944 0.23241608 0.03710356 -0.00740957 -0.14834844 0.00357132 0.01109622 0.03572860 0.13868450 -0.14523381 -0.53903359 -0.04747890 -0.05145957 -0.23849347 -0.00867387 -0.03186073 0.03318831 0.04054665 -0.01376018 -0.07395347 0.03349959 -0.03643984 -0.00694329 -0.01394581 0.10333201 0.53476591 0.00943059 0.00419649 0.13873109 -0.19387897 -0.01148607 -0.01255558 0.29813109 0.51741937 -0.93769749 0.09358694 -0.18007791 -0.22416011 -0.00038297 0.05230888 0.07441563
-0.15210979 -3.20874631 3.44211387 0.86869448 -0.00720793 -0.49823271 -2.22503405 -1.95003111 3.89840783 0.75717484 -1.08838454 5.91553663 0.18659030 2.51593534 4.76445180 3.88295322 5.05282125 1.82844829 -8.07993833 6.44621743 0.88461255 -2.33954957 -1.38041720 -2.28388973 -0.05811883 2.23604253 0.22298693 -0.66562669 0.73809271 -0.56528470 1.53269428 -4.73514931 -2.97643777 2.69195028 -2.73318783 -4.19956932 -1.58728180 2.41731818 -2.25150486 -1.72891112 -1.41747750 0.17859328 -0.98920123 0.39011146 -2.01386127 2.15789445 3.55880532 -0.56915334 0.02677119 2.32101346 -0.70295840 -3.26898422 0.52816530 -2.03881177 0.77191979 1.12928372 -3.08804445 0.12338140 -0.06050886 -1.22455943 0.72724823 2.92785922 2.67077503 0.45612902 1.28540845 -1.90210548 0.64020154 -1.23916215 -3.76456217 4.68770552 0.94933893 -0.36414115 -0.28322971 -0.00363912 0.05890631 0.05989833 -0.47518334 -0.96684421 -1.34865985 0.09567102 -1.11407337 -1.93866326 -1.37276770 2.21559228 7.60259998 -8.27551027 0.92880423 2.27498503 -0.00699467 0.90917531 -6.41878361 -6.53375146 0.78618198 1.63530019 1.89603497 1.81944780 -0.11205467 0.17115213 -0.10539548 0.07281963 -0.01503976 -0.24138590 0.00995263 0.02301815 -0.05221861 0.35239019 0.33141577 -0.42188138 -0.11439640 -0.00635680 0.17513647 0.07614984 0.03872239 0.21403134 -0.04920182 0.00962765 0.38499102 -0.08299574 -0.09614913 0.12001124 -0.07272814 0.00634390 0.01478018 -0.00882749 -0.00255701 -0.03828468 0.22615169 0.14724672 -0.43507980 0.29711236 0.45218364 -0.30463015 -0.06292475 -0.10969214 0.06012361 -0.06175808 0.10774910 0.34247908 0.06769810 -0.04004700 0.23242188 -0.05119012 -0.04363838 0.36413035 0.18342735 0.05069096 -0.10693481 0.12316999 0.00060200 -0.15609706 0.11099817 0.08318954 -0.10004911 -0.09190043 -0.06817045 -0.06737209 -0.12780977 0.21042105 0.11809847 0.01474724 0.02952478 -0.03202547 -0.41250355 0.22685126 0.52194555 -0.18802913 -0.18142112 0.19157012 -0.00876506 -0.04158259 0.07363772 0.03512876 0.04201969 0.08213425 -0.06352681 0.02755704 -0.00806849 -0.04150674 -0.14048631 -0.00709961 0.03533794 -0.00125108 0.21939726 0.04715951 -0.00483692 0.08789638 0.33803242 -0.23897161 0.25253901 -0.01156621 0.04164131 0.11858708
-0.89515029 -2.04894479 1.61382102 -3.69249380 1.29856862 5.87342689 1.01741610 2.16436372 -0.92717003 -0.79989671 -0.69476010 -1.22473824 -1.93772085 1.06497308 -0.52881239 11.13237380 2.18263135 0.52120377 1.60543580 -0.58998308 -1.69483677 0.90185374 0.08270572 -0.66450189 -7.29269141 4.66391189 1.07163255 4.65419332 2.71455463 -5.77229208 3.10514744 -2.01457285 -0.90098533 -0.67949539 0.45823300 0.64361606 3.12234142 -0.16351072 -2.95051915 -7.59505784 4.05257531 -0.71969074 4.25206821 0.85036219 4.76559309 -8.03124032 -0.23387899 -6.33421113 3.47970884 -6.99473885 -2.22856345 -2.48210060 2.52414048 0.19485126 0.44454774 1.75499904 1.18257801 -1.07135617 -0.32809640 2.82321301 1.85025620 4.67046192 2.02999360 5.97248434 -4.21318311 -4.93439720 0.32663727 0.68195151 1.95288340 1.03609733 -9.70273460 -4.59254983 2.53512778 -0.21926203 -4.30451224 -0.32106504 1.81724659 6.96696439 -0.93153065 -1.72970361 2.09596192 4.84731895 5.18237626 10.24270418 -4.64688063 3.20616600 5.49444163 1.38184583 -0.83575567 -3.67148143 -6.51725494 -10.69873354 -2.20464241 -4.77091952 1.09763704 -3.81898047 0.03603543 -0.09598433 0.09766014 -0.02427648 -0.09576275 0.21962620 0.01371557 -0.01173391 0.00202164 0.01891192 0.07458279 -0.06032786 -0.03669498 0.13127276 -0.03882303 -0.16976421 0.86679176 -0.59302964 -0.17442850 0.34097975 -0.27239186 0.02252774 0.05080594 -0.03080945 0.20725525 -0.68364767 0.39146947 -0.08290908 -0.16306178 0.21008069 -0.02093958 0.01527041 -0.02598579 0.01887892 0.05801214 -0.06088368 -0.03796113 0.10453078 -0.12525636 0.17340823 0.62366928 -0.34118433 0.17958619 0.51580588 -0.11967123 -0.51578397 0.79573305 -0.16217107 0.13149173 -0.23738731 0.09264390 0.02520940 0.06878532 -0.04503108 0.00163551 0.04041306 -0.04523900 -0.03676865 0.05443698 -0.00326586 0.11605815 0.43561468 -0.31940561 0.02447446 -0.07012576 -0.58759182 0.00430496 -0.09054519 0.08731850 0.02035465 0.46011503 -0.15352075 -0.01104146 -0.02846915 0.07076013 0.15715442 -0.25475764 0.14855775 0.00344274 0.06412332 -0.03819825 0.28445512 -0.69374440 0.09425027 0.37238715 0.17552800 -0.35991540 -0.05313847 -0.06212167 -0.06437621 -0.31487891 0.18511933 -0.24548108 -0.07163651 0.10176884 0.01548108
-0.60676672 1.78262573 1.14398249 -5.71185934 -1.88070810 1.32606458 2.75849937 -2.87797414 1.12481061 0.40669506 -1.02872850 1.95303514 1.37617841 -0.60717632 0.06359581 2.22434602 -1.92003161 -4.56936627 1.13152474 2.47121258 -3.29192818 1.48737914 -3.07844422 5.08439047 0.72120827 -0.75469177 0.04189724 -1.57961432 1.68271255 1.04837323 0.53464341 -0.82884599 -0.03377216 -1.72142564 1.17243782 -1.21889319 1.65525281 -3.70249311 2.45888639 -1.51547502 2.41286649 3.26345954 1.08518189 -0.97511013 -4.56489901 2.13469319 -3.00241635 2.61980990 -0.75162951 -4.78097265 -2.79396604 2.04568775 -3.27127417 4.38801166 -4.10258119 1.27370790 -4.37561406 2.12406037 1.48991253 -3.59587424 -3.44843248 -0.20078049 3.37970330 4.43052562 -0.35157205 -3.59191300 -1.37397620 -2.01916020 -0.19859921 -2.22484248 3.57411648 0.62212921 1.00055333 1.70145504 -1.60842817 2.77906473 5.39612951 -0.69172874 -0.07864918 1.12300724 1.65595018 -2.54372161 1.03131545 0.74563779 -1.14631032 3.34094711 2.92416182 1.64090857 -0.86646231 -1.65606674 -4.65851443 1.60235212 -3.73482887 1.92739574 2.09204355 2.08197848 -0.08826036 -0.38501006 0.21470488 0.43124270 -0.24588863 -0.19272764 0.08776742 -0.17171379 -0.04874005 -0.00628501 0.06530531 0.00268314 0.03986702 -0.08960263 -0.00130893 -0.16831775 0.30902260 -0.01542027 0.05211600 0.06870351 0.04691622 -0.58373962 0.29392449 -0.43586566 -0.02936264 -0.04041669 0.10386083 0.08143259 -0.24921117 -0.07179722 -0.10241270 0.18534094 0.06029918 0.04266616 -0.00360229 0.04205824 -0.13162645 -0.01826485 0.11019800 0.11185380 0.37707232 0.44379416 0.09500978 0.24862590 -0.04184657 -0.05266975 0.16045885 0.17206103 0.21577265 -0.12402665 0.13198707 0.09650107 0.03918050 0.01199864 0.06403643 0.00870868 0.08651496 -0.02593348 -0.43120721 0.06706138 -0.05732683 0.04512075 0.02671000 0.09494967 0.57104285 0.17539273 -0.05586294 0.08433848 0.00106077 -0.19292454 0.41300640 -0.05929092 -0.11074878 0.14766216 -0.07403265 -0.15783792 -0.42133162 -0.42470401 -0.04576674 0.05570944 -0.02204941 -0.02209441 -0.37954580 0.38079459 -0.25528911 0.27352783 -0.16731102 -0.09181934 0.22209554 -0.05753460 0.02554043 0.01128091 -0.01898853 -0.02738721 0.03443727 0.03982673
0.51847513 -2.40337909 1.74133158 -3.11172665 1.73579922 -7.34369751 2.86972886 -3.71029790 1.95023895 3.81538648 7.65653030 3.65057796 1.74814568 -2.53842461 1.95049617 -1.11337130 2.59617624 -0.93743718 0.61844796 -2.87534660 2.26489930 1.92958140 1.27168335 2.55843891 0.91611937 2.50075218 0.53400119 -1.67327093 1.90245932 -1.81710179 2.04598731 1.45126183 -0.08790343 -1.10238254 -2.70141940 3.23753876 1.52925940 2.17633951 -1.67805911 7.68800087 -4.09913911 -10.33215957 -0.57199120 1.84021104 -0.58772266 -1.37634067 -0.81734594 3.57349653 -1.39460526 0.18873169 0.98677949 5.37098062 -0.86920246 3.58832075 -1.89795189 0.12920344 -3.36404670 -0.94049163 -1.94986843 -2.72020915 1.17762105 2.01612988 -2.59612812 -0.59247142 -0.57591298 -0.75672971 -1.93393998 2.29256259 -2.40875346 -1.03454125 -2.99273574 -1.89844654 -10.79875204 -5.53583868 8.70948377 -1.16156798 1.14309760 0.27251821 1.50831604 -1.61195845 2.39039675 -1.51183445 2.51088891 -1.14172408 -2.89396286 -2.01587429 1.37300297 -0.33705769 1.29485306 2.07852803 0.34489122 0.74295744 -1.76829151 1.36531836 1.24710609 -1.42163878 -0.28603729 -0.01829223 -0.26637165 -0.03755968 -0.21109392 -0.70378218 -0.02110928 0.10810647 -0.08145228 -0.08617056 0.07146545 -0.13862103 0.13640874 -0.03333546 0.04429983 -0.04476953 -0.04380197 0.31341660 -0.07883034 -0.07867252 0.10501123 0.01335122 -0.11854467 0.29441262 0.06594729 -0.02656208 -0.00204093 -0.06133550 -0.35167474 -0.35080570 -0.02769605 -0.00271635 -0.06852764 -0.00716877 -0.06358965 -0.02755831 0.01168615 0.01311038 0.00389486 0.26752430 0.06939559 0.69387204 0.08722319 -0.19906972 0.26017772 -0.30349773 0.09349395 0.23976489 -0.00462591 0.01628596 0.07541544 -0.21036539 0.13547677 -0.07485949 0.00924844 0.03997831 -0.17298704 0.07208368 -0.15021106 -0.28774391 -0.02213865 -0.01331328 0.10104426 0.05009698 -0.01479771 -0.14471698 0.06178024 0.02324067 0.16752078 -0.12004755 0.22111446 0.18803669 -0.17637475 -0.21721002 -0.50329397 -0.03664532 0.06059636 -0.03553232 -0.02152796 -0.03662756 -0.12664997 -0.18829104 0.10743236 -0.35707367 -0.08761809 -0.02971581 0.01361279 -0.00650016 0.02220785 -0.00203173 -0.10675118 0.19156574 0.17591141 -0.13465989 0.06735915 0.26355579
-2.75455676 2.05000159 -0.28081702 -4.24433649 1.61432080 1.24651252 -1.95767741 1.62717445 6.27612545 3.72687727 1.29430540 3.77439948 -1.99114899 -1.95073970 1.24156893 2.83433087 1.63677311 0.35586449 -1.33326948 -0.21805466 0.22724333 9.06871899 -4.59266125 6.59378241 -1.81574618 0.71340571 -0.67314451 -3.40327139 3.11939530 -0.35872015 1.25875137 -1.89896713 1.74582042 0.07772802 0.79048004 -2.90831607 0.02172958 -1.84001983 -2.51007581 0.74899360 0.85053697 -0.83819063 -3.01471267 0.77210942 -4.15316083 -0.61051782 -3.06847566 -0.60923322 -0.54385378 1.37629633 -2.73756020 3.57053751 -4.13193088 -0.19119482 -6.32870693 -2.68540414 -9.42141164 0.79032478 -2.65437737 -1.88754286 -0.39552132 -0.26967667 -0.87800625 2.15146042 -0.34721161 1.00127324 0.83413821 -0.19192072 -3.41171497 -1.52914702 0.57062131 -1.56731873 1.94181616 -0.82116422 0.42528874 0.79677890 1.38826839 -0.59215708 2.75013395 -1.84742259 2.15199639 1.64430308 -2.78685310 -1.71081189 0.92999839 1.52952691 1.69067776 0.17387602 3.52885868 1.75460544 -4.80654722 4.72014160 3.50082234 1.40851634 1.72266352 2.74339576 -0.02757762 -0.01149816 -0.13888754 -0.26660716 -0.44380633 -0.29268745 -0.06145982 -0.23855004 -0.08467569 -0.06114357 -0.06048964 0.07615231 0.07571391 0.04838349 -0.06383356 0.03997224 0.57268703 -0.21324472 -0.03861514 -0.09200182 -0.05459317 0.37454455 0.44886447 0.65496459 0.04801900 -0.21496884 0.03649977 0.01240686 0.01505970 -0.01070394 -0.01767078 0.03173209 0.11559445 -0.56005365 -0.27960592 -0.33608383 0.05645759 0.21034855 0.24519184 0.13235909 0.12699017 -0.16064760 -0.00352575 0.12074886 -0.01539540 -0.00223618 0.02529281 0.06834574 -0.20482544 -0.49160385 0.01926351 -0.14244579 -0.28990648 -0.13403719 0.02012793 -0.37425581 -0.13337173 -0.10522838 -0.09440202 -0.06441908 -0.33337498 0.22352381 0.22574324 -0.03853916 -0.00933440 -0.05636571 0.08055552 0.44770215 -0.24070715 -0.01844527 -0.07950407 -0.02192482 0.05600964 -0.03121723 -0.00518241 0.02201284 0.06540321 -0.01010008 -0.00339335 -0.35900708 -0.17344428 -0.04790258 -0.08260576 0.01128404 -0.08960089 0.06340431 0.33003660 -0.01643908 0.07000618 0.04291261 0.18798171 0.29574510 -0.03538463 0.05203374 -0.02386502 0.02832763
-0.19174074 1.77285081 3.00776613 -0.20795833 -0.92272979 -0.63811959 -0.15570433 -0.92315953 3.62122449 2.49474980 -1.52100404 -4.56969306 -1.59596899 3.69578409 -1.37245281 2.19516964 -0.58472878 2.95898687 1.73193077 -3.26762663 1.47638008 1.07780129 -1.09985034 2.47977049 -1.51075219 2.43201378 1.45970998 2.31695717 -0.47496760 -0.33357522 -1.61665579 2.25277177 -3.14568317 0.34492036 3.97750233 -0.31772779 -1.62632265 -4.73386350 -1.52151031 0.87352634 -1.07724683 0.29148961 4.08674587 -4.33989892 -1.68305584 -0.08202904 0.43099125 -0.00364987 0.08388356 -3.72961654 -1.16465317 -0.52687892 -0.85338034 1.29550197 -1.45782441 -5.57082511 6.80323608 0.51530774 -1.96988392 0.28359090 2.55550461 1.35789858 -0.91426931 -4.02990996 4.75066907 -1.69300993 0.95497612 2.45248972 -0.06581192 -5.55528494 -1.98928766 -1.62364183 0.44555885 0.31350910 -2.48240353 0.68455904 2.15132827 -2.38989052 0.30784268 8.40472019 -7.97904310 -0.21542543 -0.91435272 1.91397116 -2.95394730 0.65012871 4.31700644 -0.26687746 -0.13624692 0.65622043 1.86085220 -1.60619418 1.50512918 -0.53700557 1.07220571 -0.17179280 -0.08220148 0.04238405 -0.47342260 -0.00489756 -0.05478864 0.04859685 -0.27211606 0.43847455 0.19541309 -0.16788066 -0.00840734 0.01984654 0.02977482 -0.18395812 0.04556313 0.11963778 0.04460245 0.00094977 0.12631674 0.02862585 0.02401971 0.06192024 -0.18614004 0.12272901 -0.22312150 0.01571412 -0.22523875 -0.00639527 0.07881445 -0.08116216 0.09391142 0.25306185 -0.42902698 -0.03977956 0.12821779 -0.27495665 0.07178193 -0.03788186 0.00450364 -0.25942308 0.06239936 -0.15144926 0.38697859 -0.58702552 0.58790993 -0.10646877 0.11726023 -0.07748970 -0.19387363 0.34695259 -0.30979592 -0.31768563 0.13316603 0.02375206 -0.04005149 0.28748929 0.30235851 -0.01472300 0.10268346 0.06806575 0.04261023 -0.05154723 0.05450807 0.12270627 -0.36706529 0.11649679 0.35845605 -0.11830220 0.05733888 0.06949749 -0.14164531 -0.03841259 -0.06107426 0.04201766 -0.04333865 0.13086124 0.16717645 -0.04827436 -0.15506043 -0.15098452 -0.24977596 -0.10457841 -0.00406892 0.01100500 0.00658567 -0.22256017 -0.02327527 -0.06613842 0.24044957 -0.07231798 0.08535397 -0.22532615 0.37789111 0.06765663 0.05194873 -0.01209200