0.04556781 -0.00238925 -0.07180793 3.69705298 -0.01514434 0.05830681 -0.01252230 3.51334929 -0.05428511 3.48767827 3.51342331 0.12367866 0.03771747 -0.03036682 3.50646332 3.57904621 -0.04720247 3.49691722 0.21603201 3.40654662 3.47033591 3.69953252 3.64370657 3.45960387 -0.03223336 1.72874233 1.91922195 3.60839331 1.89630304 1.81466354 -0.03862612 5.25213949 1.89308626 3.45016608 5.13451596 1.72929628 -0.04466414 1.76871321 5.35750211 3.61919440 1.68682999 5.39291761 0.06257406 5.37135620 5.19666690 3.62664857 5.34327789 5.36898215 1.86200942 -0.13002911 1.91352768 5.36016893 -0.02080176 1.78433786 1.63734640 3.56000596 1.80816028 5.32665046 3.48835679 1.86520446 1.74712447 0.15364298 5.12091885 5.32961301 -0.17096110 5.28788084 1.87751713 3.69250993 5.45623356 5.42590710 3.46563403 5.46166505 1.80670068 1.83326437 -0.01949644 5.36898101 1.75631167 -0.11604022 1.89845849 5.40027650 -0.03959482 5.08065311 5.45112798 -0.02500245 1.68678994 1.58372817 3.47155596 5.22541014 1.83775399 3.51113765 1.97043385 5.25588307 3.44742287 5.46658553 5.27131262 3.47831520 -0.04598372 0.11359336 -0.32618550 3.59095206 -0.00265678 -0.25649476 -0.10524172 3.64020779 -0.33222577 3.35939403 3.59077994 -0.13629365 0.13552763 -0.21859226 3.65761590 3.76692306 -0.19717184 3.69489849 0.23061931 3.20579974 3.62815958 3.70113789 3.39085349 3.69390562 -0.20771131 1.76244553 1.63353890 3.53216158 1.88726893 1.55381419 -0.23481119 5.38417683 1.71478350 3.45284659 5.21828767 1.44395585 0.04685568 1.65078519 5.59886636 3.67933982 1.50074984 5.56470719 0.08866726 5.14710105 5.39175648 3.68659910 5.22346318 5.63024026 1.79033762 0.10828584 1.70483905 5.18365009 -0.04403788 1.49130328 1.51514392 3.72460811 1.60677581 5.23427124 3.58310596 1.61318002 1.84307778 -0.00713174 5.40526641 5.28994378 -0.22102019 5.58085571 1.94993731 3.59886544 5.75840147 5.47714317 3.28812974 5.66059318 1.71309269 1.92992450 -0.25029558 5.39827640 1.82902424 -0.41645513 1.87565573 5.45214754 -0.34013215 4.89934102 5.61441048 -0.20229615 1.74346162 1.55431560 3.77283073 5.32153524 1.75897119 3.75284606 2.02775638 5.15914533 3.76119706 5.65065747 5.20697662 3.73600213
-0.04368188 -0.05663953 0.01119521 3.59822081 0.04517115 -0.11970603 -0.01405751 3.69279518 0.01259989 3.55989001 3.62316162 0.05161942 -0.13798258 -0.09083671 3.62835841 3.56297447 -0.05647212 3.42152909 0.01623177 3.57389663 3.30877330 3.46502600 3.48757648 3.63088919 0.07235228 1.79316710 1.98302456 3.65733704 1.72017875 2.04417662 -0.03031280 5.26424546 1.83560906 3.45036642 5.39707134 1.80507864 0.17814098 1.77045946 5.39741993 3.47097347 1.82448922 5.28122117 -0.07651543 5.28047792 5.48511322 3.65228071 5.33260762 5.17640524 1.75316041 0.02092460 1.88999972 5.36088527 0.08718540 1.75196211 1.76851201 3.51230423 1.88586356 5.24118846 3.49230781 1.80901409 1.56958896 -0.05038576 5.26980383 5.39513914 0.15275834 5.29555454 1.78201210 3.26318265 5.32403639 5.37032567 3.66358046 5.38979375 1.65929710 1.76152670 0.03537957 5.29569322 1.63357908 0.14294438 1.88698248 5.35255361 0.00909019 5.18526814 5.30630400 -0.03788103 1.75259187 1.65034530 3.46049948 5.35240419 1.78292298 3.53222182 1.78176209 5.34737776 3.47333526 5.29648072 5.07638114 3.32730068 -0.31584782 0.02531751 -0.00484779 3.31402083 0.19823482 -0.14154952 -0.27156356 3.88853225 -0.02248401 3.24222519 3.71664022 -0.01659377 0.17134667 -0.12444670 3.53450810 3.78544653 -0.17771933 3.38094873 0.29482844 3.48163111 3.21307705 3.69507400 3.30707739 3.66215451 -0.13723532 1.96856181 1.97988850 3.36552034 1.80573902 2.11975718 -0.30272134 5.28447232 1.90854568 3.23438882 5.61569520 1.90230555 0.45392826 1.67504431 5.36968294 3.77915532 1.69365224 5.25080610 0.22078426 5.18331899 5.45892492 3.94937409 5.22578650 5.22970235 1.47073148 0.13237147 1.97966646 5.04777603 0.20982057 1.75845201 1.48734160 3.60827940 2.04735573 4.95958265 3.60827624 1.83838371 1.84222438 -0.15306386 5.27778105 5.66328245 0.14316646 5.37270199 1.99606013 3.09895793 5.25839008 5.63060952 3.46553710 5.40825177 1.39645547 1.84388971 0.14282182 5.01915987 1.77399648 0.11856787 1.64723842 5.54988279 -0.03572616 4.89193434 5.41689150 0.06100109 2.03420220 1.51697098 3.33123623 5.61066768 1.73717002 3.46631702 2.04031122 5.23895357 3.45976380 5.57001166 4.90654427 3.27308754
-0.00685751 -0.02222017 -0.06073139 3.45619510 -0.07996780 -0.14904785 0.07407306 3.58168498 -0.17330179 3.43526176 3.46087516 0.06647416 0.04638546 0.06270320 3.53814945 3.50857215 -0.01796523 3.61672208 0.03817678 3.79102306 3.39869680 3.64278314 3.60104881 3.44346079 -0.09303202 1.84587628 1.75578928 3.58695279 1.91508469 1.83468655 0.10332329 5.33060627 1.66250828 3.59468849 5.40140240 1.75503739 0.03967411 1.57852199 5.38711126 3.69645627 1.74438278 5.47094874 0.09486559 5.32612966 5.28130312 3.49912942 5.22923256 5.45164841 1.82847894 0.05890588 1.77139319 5.19120273 0.08629209 1.83655120 1.70003176 3.58645844 1.67841588 5.39641557 3.60599181 1.93584476 1.88607127 0.01045335 5.46946169 5.33726684 -0.02488765 5.29357472 1.93282047 3.57967173 5.42932372 5.36727578 3.61181845 5.26314723 1.69790144 1.76590135 -0.08011137 5.24164235 1.86191330 0.09579927 1.81517557 5.23252702 0.08500167 5.44785965 5.24935563 0.01227859 1.71267525 1.63478256 3.51979426 5.44740394 1.78038903 3.58447482 1.75810712 5.41449134 3.41783146 5.22642281 5.47001701 3.66631564 -0.23642437 -0.10628168 -0.13305801 3.22752892 -0.22501976 -0.32000666 -0.19201029 3.48905008 -0.32750997 3.27416879 3.31102264 -0.08877283 0.24590224 0.20845125 3.69444403 3.70753353 0.05359709 3.79071054 0.13965734 3.99780034 3.65322908 3.87018420 3.67452265 3.62514765 -0.23059006 1.65528014 1.61471003 3.39144261 1.78337048 1.68188401 -0.10582829 5.09489470 1.60185532 3.47114443 5.13779740 1.64899225 0.31966220 1.60682828 5.50381411 3.91244904 1.93375642 5.63933389 0.33288099 5.48693881 5.42655458 3.67812469 5.45112082 5.56132403 1.55720739 -0.03812136 1.61357721 4.98098057 0.03119877 1.66773480 1.45914985 3.48633354 1.65223444 5.19849509 3.45824345 1.82240275 2.12242921 0.07171179 5.56301721 5.53326877 0.07246142 5.53789617 2.05433736 3.80762357 5.56415344 5.56897149 3.82733500 5.40964357 1.51011472 1.62337092 -0.21415416 4.95015308 1.80134410 -0.05759736 1.69661553 4.94299026 -0.02381219 5.28337874 5.06967332 -0.11613637 1.94566575 1.75481400 3.69587340 5.57671905 1.99683323 3.68676514 2.01926311 5.55105102 3.50509916 5.45865616 5.54630266 3.79038368
0.06664901 0.11543315 -0.20229872 3.59990423 0.07907551 0.06654407 -0.01140863 3.48416408 0.09249374 3.52955932 3.67913059 0.02319889 -0.04004688 0.17733780 3.53555817 3.52731180 -0.02623678 3.49077773 -0.06732720 3.54517044 3.58985771 3.43090698 3.62097288 3.53064473 -0.05355027 1.79333166 1.82144243 3.53414075 1.93717249 1.91112094 -0.04284068 5.35972110 1.94136850 3.48154875 5.28300500 1.82295659 -0.06597008 1.79674194 5.36293778 3.56332007 1.73254173 5.41386219 -0.02173424 5.36230566 5.35764075 3.49697611 5.35746846 5.55203408 1.77627916 -0.04546075 1.90986637 5.44284466 -0.15632453 1.95746437 1.76334580 3.27420323 1.96828377 5.23921659 3.42805304 1.81044909 1.78243194 -0.06786105 5.41999572 5.30061891 0.03362763 5.39865206 1.86542302 3.64990999 5.28009143 5.30491290 3.58328398 5.26781881 1.56778302 1.84809130 0.05407858 5.38995699 1.80456294 0.03677876 1.84066625 5.20854794 -0.06616312 5.24820214 5.27979926 0.13208230 1.78998618 1.85217995 3.50599414 5.32931974 1.81953295 3.64380696 1.72743459 5.31228599 3.57521108 5.36163846 5.25309234 3.58525103 0.03484182 -0.14033999 -0.26167960 3.51943038 -0.20145721 0.12734224 -0.07737681 3.23514148 0.01746206 3.68892879 3.40606726 0.01146420 -0.18870662 0.44062112 3.55562616 3.40222343 0.27364516 3.53149879 0.02735981 3.78584611 3.57800511 3.32351477 3.84527211 3.61179207 0.04255398 1.52105515 1.93409087 3.48115667 1.64923162 1.84859719 0.04076697 5.07655575 1.82215772 3.59722440 5.04076245 1.78432849 -0.09723989 2.08915674 5.36824617 3.50426793 1.98265728 5.37760370 0.01759003 5.65396534 5.45159759 3.52218014 5.61182431 5.56541274 1.76234041 -0.36152634 1.93536066 5.49196481 -0.44203865 2.07070235 1.75623474 2.98787460 1.92920896 5.20673817 3.20125947 1.69795483 1.80079929 0.18212297 5.35912957 5.29755317 0.28149147 5.29535509 1.83513274 3.93996650 5.32467187 5.17350711 3.83752649 5.20734949 1.60296665 1.54822298 0.05588583 5.48660319 1.50423884 0.14908027 1.81198144 4.93126466 -0.14923338 5.26224753 4.93987430 0.10030908 1.76718350 2.11729999 3.48091933 5.33250112 2.14851010 3.67488631 1.74884727 5.62229716 3.56778706 5.34770195 5.58042318 3.59465693
0.01227220 -0.00951493 -0.13832820 3.56421545 0.08608703 -0.16058542 0.07017551 3.54775864 0.12166465 3.42052359 3.73901216 -0.04131611 -0.03660980 -0.04650001 3.54870404 3.58001023 0.05432625 3.52126751 0.04346813 3.45078463 3.46949799 3.50955669 3.51623627 3.54513441 0.05063755 1.65959064 1.71215318 3.69839329 1.94535063 1.76412312 0.18207471 5.36706262 1.76812801 3.59239551 5.25903529 1.87711784 0.01672996 1.71799066 5.50472922 3.57694010 1.70868000 5.38531524 0.06394470 5.38165880 5.35546946 3.50672011 5.35536552 5.28689230 1.73167835 -0.12186114 1.69107932 5.35031908 0.03185056 1.82204937 1.87107569 3.63248132 1.73216874 5.40501588 3.46354781 1.85161443 1.74940158 0.12191814 5.43037805 5.22673244 -0.06333305 5.21953751 1.78712918 3.65428186 5.39099917 5.17968117 3.52465238 5.42515182 1.76103636 1.78249124 -0.11750090 5.38047251 1.83739290 -0.09753121 1.92453525 5.14293454 0.04767206 5.37532474 5.42088510 -0.12092361 1.90992294 1.79427579 3.59555545 5.29521248 1.70519688 3.43492517 1.65425562 5.23795999 3.43085928 5.13033133 5.31155160 3.65912516 0.22431206 0.23411665 -0.16041882 3.82135719 0.25671894 -0.16867834 0.17208651 3.80588662 0.25172976 3.62431644 3.98762349 -0.00315072 -0.20692914 -0.22887846 3.61067222 3.42762539 -0.14895647 3.46343097 -0.09408686 3.15437787 3.56158818 3.26560789 3.35136631 3.50019583 0.21187290 1.86124310 1.69832566 3.88953545 2.12222310 1.72064715 0.34150928 5.65542867 1.75429811 3.73988916 5.51861680 1.91823100 -0.15440559 1.51880090 5.46245271 3.42541462 1.46859713 5.35990491 0.01202628 5.13885220 5.27835405 3.32689774 5.07323284 5.24172694 1.93194298 0.01032213 1.83178625 5.53988513 0.25483617 1.83751873 2.06861673 3.87627610 1.78322063 5.60159546 3.74227455 1.80219288 1.58103043 -0.08501757 5.38437597 5.02996237 -0.26160207 5.15086439 1.68771229 3.39419921 5.27853265 4.93538515 3.39986153 5.28590298 1.96556143 2.02191640 -0.07394330 5.46360823 2.11179544 -0.04122544 2.20350962 5.34114490 0.03381719 5.53667768 5.69224440 -0.04342965 1.70745885 1.58366889 3.57310203 5.06981672 1.51329988 3.45116993 1.47409098 5.00538285 3.37998870 4.99978517 5.11376084 3.56348831
0.11949339 0.05944932 -0.08608493 3.48619301 -0.01233950 0.02853532 -0.11712279 3.54734894 0.01032419 3.52387761 3.54925807 0.02350597 -0.00273804 0.07467209 3.64615767 3.67386877 0.06423577 3.47978236 0.00585908 3.48878980 3.43043581 3.58345785 3.62462143 3.54732312 -0.05441104 1.62946387 1.84521223 3.55623639 1.74627114 1.78229261 0.09671480 5.15975646 1.74893719 3.56900515 5.11257644 1.81247306 -0.06194428 1.73844199 5.24274080 3.61436510 1.85702238 5.44858571 -0.03583697 5.34986369 5.31372820 3.57395235 5.20887387 5.35132545 1.78777830 -0.03696909 1.82616877 5.17557021 -0.02905210 1.84704394 1.90428605 3.50277792 1.83585740 5.40968160 3.72447448 1.79119251 1.90323642 0.05215272 5.37843133 5.28792038 0.09961884 5.30003575 1.89869051 3.56784927 5.32626176 5.49014799 3.52976763 5.39253407 1.74391222 1.91773650 -0.01901936 5.35688913 1.78298658 -0.03243892 1.91947245 5.39146459 -0.02703818 5.28472843 5.40976179 -0.11918359 1.82010024 1.82314910 3.49415816 5.21660782 1.85840748 3.40007380 1.65476508 5.14491666 3.40891387 5.31544154 5.34519204 3.47144126 0.05960476 -0.11407636 -0.29469429 3.53040167 -0.12167025 -0.28218734 -0.21438111 3.43155110 -0.25640077 3.54734469 3.28982336 -0.16363637 0.01047296 0.16903458 3.94809574 3.60203450 0.27977279 3.69665939 0.00425595 3.62965793 3.67757574 3.65555981 3.79175489 3.81812292 -0.00477163 1.44949823 1.57370039 3.56366040 1.54438265 1.57403248 0.12884849 5.02014004 1.45334370 3.53172622 5.01795997 1.52296343 -0.18933623 1.92629189 5.43528897 3.52612495 2.02903782 5.71851932 -0.07059645 5.47203121 5.61200188 3.52776429 5.31024772 5.59592790 1.77476243 -0.15551745 1.51355943 5.15381744 -0.19133972 1.55447086 1.89482352 3.35158101 1.52618232 5.54545236 3.61609381 1.51201176 1.81655657 0.12844750 5.61509067 5.25941716 0.28021702 5.52195353 1.92474045 3.79759260 5.50956268 5.45329787 3.62813468 5.64224093 1.77933631 1.77469603 -0.28531121 5.31171702 1.66580771 -0.33350169 1.86858828 5.21894128 -0.21394686 5.22343159 5.19230421 -0.37066148 1.79141548 1.95995146 3.78503048 5.24869395 2.00771327 3.69684865 1.57653617 5.28573723 3.71432818 5.33209454 5.48398076 3.73869684
-0.03859063 -0.10723198 -0.09409535 3.40821720 -0.08208679 0.12112477 0.06511525 3.60135330 0.05791666 3.57401613 3.52688439 -0.06831425 0.07933510 0.04215356 3.64275515 3.42952277 -0.08996437 3.46182001 0.00393319 3.58559279 3.56897405 3.75067436 3.52607719 3.53626608 0.09932917 2.16511085 1.84608956 3.49679094 1.77993263 1.92781614 -0.06995197 5.40147262 1.71371151 3.47310999 5.22109599 1.91468130 -0.02315059 1.81232966 5.30178299 3.58855974 1.77752983 5.12686216 -0.14343362 5.29463860 5.32976510 3.70718758 5.17845074 5.37035230 1.84633754 0.01612731 1.83020035 5.31790641 -0.08585737 1.85353232 1.69507596 3.58776383 1.77547251 5.43019131 3.54422161 1.86763640 1.73823325 -0.10205209 5.27498985 5.27947999 -0.01113225 5.28439571 1.77457406 3.47980971 5.52632945 5.35747736 3.47388474 5.29974299 1.86769741 1.78834073 -0.14911149 5.35069466 1.95865255 -0.06374055 1.66409656 5.29286700 0.13576768 5.30402480 5.43681955 -0.01308832 1.65236483 1.58828996 3.41683271 5.29557964 1.85289855 3.54757397 1.78256680 5.40058062 3.51527873 5.23604214 5.35031814 3.54144492 0.07316914 -0.24302579 -0.28551512 3.57422874 -0.21284663 -0.03259883 0.19367322 3.42779526 -0.15588862 3.64049692 3.42433099 -0.34820571 -0.00775797 0.27057106 3.87997990 3.25711898 0.08948476 3.66805604 -0.07304647 3.75812361 3.76992669 3.58666509 3.69249689 3.74161781 0.23762639 2.01711744 1.69138866 3.57744860 1.67270804 1.63025803 0.06759472 5.22088505 1.53388811 3.47708958 4.99168076 1.73485117 -0.18061565 2.00497162 5.48233197 3.57485227 1.95771369 5.39125929 -0.29511410 5.45708553 5.48092401 3.61545280 5.42861430 5.57242962 1.98689777 -0.24162806 1.69511632 5.40740314 -0.16423164 1.61942772 1.86424847 3.41928293 1.56180108 5.63208271 3.30190160 1.76349571 1.64350071 0.05831544 5.53977929 5.15700141 0.22449840 5.46962038 1.69624517 3.73519324 5.61532274 5.14677415 3.71740430 5.36803330 1.99778826 1.61776457 -0.33078968 5.54368353 1.78601062 -0.19303094 1.66599905 5.11176243 -0.05495822 5.41881860 5.28046561 -0.19342416 1.39847564 1.72643070 3.54019564 5.11710549 1.89682375 3.76052661 1.65732627 5.45335162 3.74515432 5.22952515 5.59608717 3.73456307
-0.01628060 0.09644458 0.01319634 3.63906225 0.10396731 -0.08388609 -0.01538632 3.64125431 -0.00518958 3.36781057 3.58607091 -0.21560513 -0.16595569 -0.00774119 3.52975007 3.55019621 -0.06057410 3.37408951 0.10378138 3.69221144 3.58345480 3.62367481 3.43140340 3.53933394 0.08401418 1.78221995 1.74740419 3.56180813 1.79069128 1.85505311 -0.07460676 5.23145014 1.79088974 3.58170150 5.26289463 1.81443880 0.15974952 1.78921579 5.36808179 3.61329067 1.82598216 5.36226904 0.01050405 5.24161430 5.37175184 3.46628525 5.16308394 5.40929201 1.74916685 -0.10913563 1.72456683 5.19853495 0.04490670 1.84208784 1.62725687 3.65280810 1.85287822 5.37844073 3.55808965 1.78374900 1.71128911 -0.05233228 5.23403093 5.23033077 -0.11829339 5.35770343 1.62858717 3.67073939 5.29399250 5.44668007 3.51612827 5.37060468 1.70366181 1.81342024 -0.01362118 5.35709361 1.93106187 0.03278879 1.76138184 5.26057134 -0.00338069 5.28113551 5.24620029 -0.16701749 1.88464853 1.80356396 3.50313512 5.28075008 1.82440978 3.42143420 1.75531089 5.48448376 3.45763366 5.23736184 5.14852057 3.51735682 -0.05780663 0.15761679 0.28870193 3.80016870 -0.01400313 0.18197780 0.11026670 3.65755814 0.31387154 3.32597162 3.63621371 0.08932676 -0.22543871 0.03256944 3.24400643 3.36589704 0.02502903 3.11075176 0.04388118 3.82393014 3.33869299 3.58392876 3.46461880 3.20228421 0.08857653 1.71890035 2.01397327 3.44707125 1.76829448 2.15693283 -0.00888347 5.32229361 2.10227506 3.69718895 5.20972686 2.13218921 0.16129597 1.70050161 5.08824968 3.54258096 1.86135173 5.07909233 -0.07042106 5.14534686 5.14863174 3.50994735 5.15864403 5.08400417 1.78236636 -0.24088836 2.00427873 5.18013133 -0.03474401 2.12173394 1.73359919 3.73699393 2.14962407 5.35609608 3.61010321 2.09772621 1.64019846 -0.15641839 4.92128279 5.18648048 -0.08902813 5.02697342 1.57687292 3.71506136 4.95750058 5.43427187 3.51940491 5.09504465 1.74151216 1.85337027 0.24213377 5.38472851 1.92975801 0.29978412 1.81844531 5.23252147 0.30263275 5.23941902 5.29915941 0.08005487 1.76361686 1.86626459 3.18972711 5.20705165 1.86683606 3.17013500 1.75836526 5.51350869 3.16892634 5.22471780 5.20450014 3.24720951
-0.03485173 0.00255688 0.06543533 3.50168738 0.02615064 -0.03826163 0.06269330 3.68232023 -0.09836046 3.61059458 3.47922322 -0.10847735 0.03491487 0.00098828 3.39561635 3.66330511 -0.03850513 3.48945782 -0.02759673 3.55791472 3.52808389 3.61755979 3.68721497 3.55554725 -0.01444753 1.93696402 1.79993911 3.47467897 1.91619098 1.78718499 -0.10456764 5.48909974 1.87397213 3.56371397 5.31816137 1.73902362 -0.07808262 1.75348194 5.38660737 3.59383089 1.87442975 5.27155091 -0.09248558 5.36406422 5.40763678 3.44599296 5.24433597 5.41433638 1.86894183 -0.08769222 1.76723196 5.40755860 0.02356359 1.80006461 1.82056558 3.63939485 1.84364943 5.40066461 3.72268770 1.88974264 1.91201174 0.12275868 5.33206461 5.18345600 0.10410716 5.35254426 1.94051023 3.68172134 5.55011132 5.23262258 3.52360147 5.30827293 1.86345143 1.75007875 -0.00389206 5.37098017 1.73261692 -0.07220233 1.91093742 5.33399002 -0.01070088 5.24883305 5.38365945 -0.17482527 1.85232266 1.70626759 3.45155919 5.48406834 1.73372494 3.46160600 1.86972926 5.23923388 3.49156861 5.40329516 5.37475856 3.53355028 0.10048663 0.28166179 -0.01975326 3.67152243 0.25182939 -0.18125752 0.21387733 3.93497804 -0.06187953 3.78071777 3.71765260 -0.23899037 -0.01688119 -0.29532573 3.55674159 3.55555648 -0.26850778 3.67577157 -0.11008214 3.32818422 3.63689305 3.52632380 3.45082245 3.64945882 0.11039113 2.16189352 1.77183912 3.60311895 2.18525966 1.67345465 -0.00917517 5.78219826 1.90345081 3.65668468 5.55379000 1.62816173 -0.21927592 1.55671291 5.61328354 3.62072907 1.61980788 5.34184099 -0.16904763 5.09556719 5.47517622 3.32173409 5.00803142 5.54629392 2.06493277 0.09600400 1.70999375 5.44388507 0.26487256 1.63669226 1.93600106 3.89770601 1.77624781 5.47520675 4.01795605 1.90062273 1.80783698 -0.10324323 5.42542031 5.04212662 -0.15450800 5.42834493 1.68517121 3.46922637 5.61363282 5.18347312 3.34763558 5.49507381 1.99830593 1.96175439 -0.09328255 5.41746487 1.96997065 -0.18946588 2.02111876 5.56808117 -0.08344038 5.31106434 5.65676915 -0.31329073 1.86913885 1.46261673 3.58846146 5.38237197 1.51161615 3.56111395 1.75076048 4.94430545 3.62194759 5.28129483 5.09391627 3.54443455
0.07273444 -0.00452942 0.06016489 3.63743513 -0.00746351 0.02916045 0.02902490 3.42557607 -0.03130636 3.76604569 3.54039576 0.08735954 0.04599713 -0.10426072 3.54832248 3.52329619 0.02642536 3.54597099 -0.04249196 3.54963475 3.53193808 3.55552701 3.73726828 3.57655685 0.01208526 1.70366665 1.90138122 3.37133161 1.61977411 1.84919801 -0.10185400 5.41775743 1.90073155 3.43937252 5.31268253 1.82372023 -0.00243790 1.81036032 5.20151321 3.53654662 1.81304414 5.39698531 -0.09648759 5.44191444 5.35781181 3.62017633 5.32851664 5.25525740 1.64043104 -0.10718656 1.92324178 5.31013942 -0.02308291 1.71942437 1.84240768 3.59493695 1.90777337 5.18511500 3.53541544 1.74974613 1.71720202 -0.02227969 5.31732941 5.22713887 -0.07580393 5.27997964 1.70409919 3.56949820 5.30165198 5.33561634 3.48789816 5.25303242 1.80608797 1.86631149 -0.06289146 5.27484315 1.75388764 0.01923660 1.82190400 5.34237277 -0.10602335 5.36306575 5.34395627 0.02261042 1.65894508 1.72131264 3.52146342 5.25681150 1.89921615 3.34243093 1.68198726 5.45644777 3.69128031 5.23908799 5.44907154 3.46572682 0.20574792 -0.28524291 0.09500361 3.72077067 -0.25152634 0.19985158 -0.11571169 3.11517758 -0.01238136 3.79329303 3.24010790 0.17100117 0.12026017 0.22720621 3.53346759 3.61459566 0.27377374 3.46158563 0.03605470 3.84622598 3.57491534 3.56819845 4.01549251 3.50885816 -0.03664711 1.48971926 2.07131519 3.27963786 1.32512166 1.86859694 -0.08822584 5.14531352 1.95489464 3.43134313 5.02477828 1.90123230 -0.00941288 2.11248432 5.13395550 3.49489367 2.08311137 5.35137093 -0.15651711 5.68385927 5.25417026 3.62423073 5.63228706 5.15136191 1.73611123 -0.34498170 1.93633231 5.18345253 -0.29907558 1.85100007 1.84612664 3.29564054 2.00561217 5.03461848 3.25047228 1.78131521 1.73507048 0.30592153 5.25084202 5.25869219 0.17410906 5.18881899 1.79810818 3.86229570 5.29523480 5.23678670 3.73578379 5.13768801 1.72439196 1.63797895 0.06388161 5.18199511 1.55109022 0.18196431 1.74515566 5.04702198 0.03057050 5.45909958 5.04378454 0.08793227 1.60260941 2.00924862 3.53332971 5.13915383 2.16757821 3.33961923 1.58761076 5.75542949 3.70635969 5.20597229 5.75535223 3.31862716
0.03568506 0.13658890 0.04094356 3.51076789 -0.03811474 -0.01998861 0.10116259 3.48935059 0.12815513 3.59462962 3.58620854 -0.15511441 -0.06468523 -0.03367677 3.57378197 3.60914936 0.01547601 3.48262013 -0.06681353 3.60452253 3.65936773 3.44330887 3.50684100 3.38062550 0.00175466 1.70704452 1.87483210 3.55202627 1.96931468 1.84060692 -0.01795061 5.30163041 1.71603300 3.58765776 5.24978155 1.72200553 -0.05528802 1.83577984 5.42179285 3.50796098 1.69386441 5.42622766 0.03204024 5.16289501 5.39910708 3.40819448 5.15194377 5.51421640 1.87791680 -0.04749994 1.80607378 5.28715620 0.06781868 1.82471796 1.80843596 3.69847351 1.86087934 5.15277102 3.62807122 1.80989952 1.68024501 -0.12807663 5.21397092 5.38204223 0.00636206 5.41901031 1.84197873 3.44722768 5.47056051 5.37042892 3.45189779 5.51159265 1.66416901 1.67808642 0.02231069 5.37792192 1.78122570 -0.10165342 1.92952301 5.34909298 -0.09147343 5.36924202 5.18192326 -0.05870299 1.93478973 1.77780170 3.39647351 5.25052042 1.73517894 3.42784877 1.67771996 5.29196576 3.56501116 5.32321050 5.45208828 3.49428184 0.16931996 0.09838707 -0.22750997 3.48561143 -0.04463855 -0.29007704 0.16290636 3.36784946 -0.12827573 3.63343462 3.54746932 -0.41112121 0.00314924 0.11778808 3.82671622 3.56264823 -0.07043102 3.77966548 -0.18112644 3.57332753 3.94190741 3.43065355 3.49770268 3.70097242 0.03571386 1.64194926 1.60642166 3.56514191 1.85993372 1.51469761 0.08585894 5.21810658 1.44065204 3.63428588 5.21929401 1.41360418 -0.07909301 1.89755081 5.74443002 3.35313106 1.70122496 5.69216416 -0.11815477 5.21265011 5.63875788 3.27456863 5.27586667 5.80297150 1.92338390 -0.18624143 1.53346606 5.30584554 0.00613386 1.49592883 1.80613664 3.68481591 1.59292017 5.08300458 3.66796918 1.50399021 1.65732436 -0.11830339 5.47900268 5.32736649 0.03145276 5.68150466 1.71121455 3.43277871 5.78503218 5.37321124 3.49537853 5.77650650 1.67229826 1.63392997 -0.28113603 5.28801490 1.67621664 -0.35820897 1.92898333 5.30161226 -0.42007663 5.36518306 5.16577586 -0.37172341 1.96657885 1.86688787 3.66077284 5.08233674 1.79640796 3.68165376 1.65845238 5.37447142 3.85456444 5.35692933 5.42140800 3.81796892
-0.05767057 -0.15518316 0.17842764 3.54964388 -0.06726707 0.06067079 -0.16372915 3.53557678 -0.02266858 3.61561203 3.58035253 -0.11128943 -0.03264058 0.06486856 3.56806994 3.47102516 -0.04575244 3.39612375 0.08049831 3.59947764 3.53650787 3.43216181 3.57886154 3.67507526 -0.06398353 1.72833518 1.84370030 3.38820406 1.80475893 1.79789799 -0.10034065 5.36087664 1.71939850 3.59532852 5.32427874 1.86203759 0.10163972 1.81745050 5.33877881 3.58628594 1.97424610 5.35202631 -0.01252379 5.22450261 5.47548288 3.45541849 5.19537011 5.34523363 1.75338257 0.07406828 1.84285687 5.45462094 0.09455496 1.75122847 1.86680609 3.64164151 1.88666374 5.23283962 3.53451865 1.99905391 1.74832022 0.11895403 5.34883115 5.16332329 0.01091963 5.44734106 1.67668809 3.49940528 5.34302709 5.40147778 3.57922556 5.35534563 1.80388801 1.84067499 -0.13852697 5.35771276 1.59260225 -0.17001474 1.77776166 5.32976941 -0.04118384 5.38501127 5.13991490 0.08425665 1.67565974 1.69438102 3.40619296 5.27783975 1.75542187 3.55378079 1.76750413 5.25623345 3.53975013 5.32326348 5.37418415 3.63648561 -0.25406871 -0.42093693 0.22759519 3.46301411 -0.37419283 0.16335052 -0.39914758 3.40316709 -0.05008575 3.39671305 3.33904785 -0.09752781 0.11883926 0.23299687 3.39082816 3.63447334 0.17033939 3.27548027 0.33426779 3.79037441 3.60341461 3.58897061 3.83552230 3.63579208 -0.22802343 1.44869291 1.86286140 3.18443199 1.64244032 1.80629235 -0.24216752 5.09553319 1.74012634 3.41066274 5.08549783 1.90977428 0.29931671 1.99612526 5.27138015 3.82984239 2.17895928 5.41612340 0.05055284 5.48456944 5.49700432 3.60786218 5.42503120 5.35040352 1.55845621 -0.14021630 1.95686539 5.37420181 -0.15720795 1.74783836 1.71217198 3.44775589 1.95319851 5.11279733 3.22106690 2.04805826 1.92157998 0.35416828 5.29758193 5.37504813 0.17349038 5.52258796 1.86690910 3.75299333 5.31351020 5.46798085 3.84967986 5.35822544 1.64359389 1.63633349 -0.09147738 5.20054354 1.37422928 -0.15150937 1.58133864 5.07166640 0.01116062 5.32500949 4.85212497 0.08425654 1.80739606 1.93099422 3.38114105 5.38037873 2.07182150 3.53145001 2.03763419 5.39290823 3.47029246 5.50242141 5.60544397 3.58585333
0.04075354 -0.05981824 -0.05274075 3.51583107 -0.07840426 -0.03565433 -0.05934598 3.37441574 -0.00840127 3.52154579 3.41575567 -0.01306874 0.01596989 -0.22340202 3.57171702 3.52055461 0.04388133 3.59093915 0.16567479 3.60367565 3.44852584 3.44492874 3.44009342 3.62603995 -0.04545176 1.85067265 1.83573386 3.56192663 1.85768442 1.62022657 0.05596264 5.36766109 1.72786800 3.57659421 5.26216099 1.89516702 0.00814790 1.80368545 5.35244515 3.58960551 1.85947897 5.30901876 -0.09148125 5.14350449 5.40228079 3.54960070 5.32978485 5.30027392 1.79934880 -0.01963190 1.86953585 5.26027900 -0.01451111 1.77718409 1.72863309 3.53363627 1.89931409 5.44787123 3.51307827 1.72093114 1.87551979 0.00612451 5.48774430 5.27194265 0.00871826 5.26904512 1.80457300 3.49028752 5.18712370 5.34186091 3.64757658 5.42689196 1.79333346 1.76027048 0.08481534 5.20692498 1.74266843 -0.01024293 1.79443053 5.46285940 0.00240909 5.29397948 5.29998794 0.03695206 1.93437570 1.87507732 3.59370469 5.29960939 1.76501662 3.65533254 1.80006646 5.23518709 3.46118652 5.53817497 5.33702632 3.61573160 0.29036552 -0.13073877 0.11711855 3.73281724 -0.17027489 0.11596682 0.10436139 3.27147479 0.16328123 3.76993104 3.32583963 0.01497437 -0.23887801 -0.06641573 3.54461267 3.31823717 0.14053888 3.44798901 -0.11364258 3.68719259 3.30157124 3.23593566 3.55176461 3.43450942 0.16821249 1.85030075 2.02336861 3.82811923 1.85887261 1.66678892 0.25042053 5.40247509 1.89865020 3.83724032 5.14507488 1.98109669 -0.21358901 1.93326812 5.29726825 3.31244684 1.84667170 5.10991227 -0.22866936 5.26166313 5.18951681 3.41435819 5.36908189 5.05235804 2.02026479 -0.10873614 2.01181694 5.55145798 -0.10909385 1.92752416 1.92690277 3.52903081 2.14927989 5.59571476 3.44704879 1.97798306 1.72225911 0.05958933 5.26988960 5.04328509 0.06424433 5.15440338 1.51411967 3.50988160 5.08678816 5.09164555 3.78321144 5.23617550 2.07891143 1.77150401 0.15510328 5.45609032 1.63520367 0.16152341 1.98072749 5.29711579 0.15479899 5.55103145 5.19117171 0.05243059 1.66369330 1.88601604 3.42366400 5.06551415 1.72229334 3.49243238 1.56125702 5.44717791 3.34797340 5.27580318 5.44569067 3.43864772
0.07928769 -0.01344526 0.09087760 3.56734876 -0.09881935 0.11626057 0.01229489 3.50354594 -0.01931700 3.48450296 3.64406286 -0.03057621 0.02981989 -0.12057397 3.38269797 3.60672218 0.04759119 3.60923883 0.03244718 3.57122796 3.42188025 3.52181677 3.56482747 3.47966407 -0.01008346 1.92466831 1.76938289 3.49491045 1.74956760 1.78565444 0.04286571 5.25519898 1.85240849 3.55510741 5.31822023 1.68013963 0.07873703 1.61678956 5.36480273 3.45460099 1.78420153 5.36531089 0.00581980 5.33908943 5.40996637 3.60328950 5.38674559 5.30953606 1.74598858 -0.06770619 1.85863151 5.27257553 0.05404676 1.82579518 1.82293992 3.54600495 1.69985173 5.37417035 3.51984755 1.84419372 1.84991816 0.07525680 5.17870125 5.35186413 0.04099893 5.33294379 1.91872185 3.36434606 5.30472165 5.34372045 3.43471190 5.46480478 1.66961668 1.86497485 -0.04304404 5.41700964 1.89270202 -0.05668624 1.76943474 5.19375170 -0.08351733 5.31103513 5.44225130 -0.09435885 1.78748167 1.65743881 3.64084236 5.32100964 1.76212174 3.49188936 1.70523665 5.24789292 3.45715805 5.25887323 5.43139608 3.60805491 0.10900200 0.09707624 0.32072789 3.53560053 0.01216933 0.36458247 -0.06904067 3.41201764 0.21149927 3.61161859 3.75068415 0.27142828 0.06372009 -0.05783251 3.12579329 3.67792850 0.06744153 3.34840900 -0.11863895 3.53959077 3.11549481 3.54407300 3.57057802 3.18650092 0.05345620 2.05842564 2.04253020 3.42647062 1.78887599 2.05515092 -0.00929301 5.31303572 2.13220432 3.63149062 5.42682110 1.91892183 0.06145814 1.62319318 5.08326085 3.50574157 1.86960968 5.05368738 0.07194222 5.28197153 5.15677597 3.66349130 5.44715146 5.02476519 1.82563484 -0.02354065 2.12227086 5.37244398 0.15432567 2.13964996 1.94654080 3.62283939 2.01140491 5.29400484 3.59737361 2.10163582 1.85809730 0.10516836 4.83560611 5.49241735 -0.01069036 5.08268533 2.01786015 3.26679280 5.01288044 5.30863430 3.41394094 5.18787288 1.64868471 1.92704512 0.27495362 5.40507767 1.89337778 0.19982386 1.65992919 5.13971322 0.14228986 5.32298300 5.54436467 0.15777939 1.86733651 1.69167916 3.33033684 5.26929763 1.67267282 3.21652888 1.78113459 5.17673422 3.15424430 5.16888009 5.34726008 3.33611845