-263.76705592
-263.87595649
-264.75710084
-264.42941233
-263.86007478
-265.13760011
-263.31973228
-264.63905761
-264.77395010
-265.06741846
-263.76863355
-264.52644897
-264.25399672
-264.82507303
-263.52077922
-264.35029009
-263.35010062
-265.27641084
-264.54032715
-265.01726343
-264.58956863
-263.76356538
-263.78464991
-264.56407592
-264.69715292
-264.14691997
-264.25547389
-264.88216175
-264.63418572
-264.50181860
-264.86853078
-263.84955729
-264.43386126
-264.03236597
-264.20709161
-263.86008861
-264.38768972
-263.91313730
-263.81826326
-264.11348143
-264.91916931
-265.96192909
-264.75843803
-264.08146997
-264.17224535
-263.73256308
-263.53139232
-264.50326978
-264.32933313
-264.11535135
-263.92948506
-264.06799786
-263.12362783
-263.36274888
-264.93987377
-264.49777661
-264.15793971
-264.74256475
-264.62462146
-264.77941800
-262.52593236
-263.31658538
-263.72213989
-264.40135083
-264.53215832
-263.86021414
-264.70601924
-264.37786595
-263.50558880
-264.14370792
-264.92021253
-265.24230527
-264.83423349
