0.11029501 -0.22874312 0.38484245 -2.06426343 1.63522657 -0.31819192 0.50208425 0.78575969 0.68001467 0.73340861 -0.50348778 -1.49884938 -0.95723278 -0.34750283 -0.22494521 0.90411960 0.07372300 0.02131082 -1.82616175 0.96740371 1.99764606 -1.22543143 -1.14292821 2.02001287 -0.10335651 -0.35417743 -2.04811950 -0.79142193 -1.17673279 -0.17787470 0.83891712 0.43489286 -1.61967459 1.27530379 1.23064116 0.00275416 0.66937615 0.14135012 -0.51915247 -0.28454090 0.78422572 -0.52173616 -0.11121531 -0.79306371 1.31839850 -0.70374040 -0.56000848 -0.97247843 -0.72597443 0.86554080 -2.08805695 0.01235306 0.17841712 0.27387132 1.13120462 -0.76847063 -0.87433568 1.35704814 0.35203619 -1.35501599 0.72692941 -1.01838143 2.35795890 0.43201216 1.47589486 -0.12533862 -0.35113628 -1.35014603 -1.34077473 -1.10687070 1.21713328 -1.32247297 -0.52670130 -0.81648794 -0.04500488 0.06364780 -0.47525878 1.37946913 -1.30616859 0.32999611 -0.05121166 3.33107899 -2.16661820 0.86495292 1.81205741 2.07527087 0.27673499 0.82881709 -0.80739334 1.00051265 -1.63014324 0.00541096 1.69953194 -1.01429422 -0.04352233 0.82522247 -0.03997709 0.02454865 -0.10195758 0.08079258 0.04758047 0.21405898 -0.00807234 -0.00544208 0.01359390 0.06202577 -0.02243857 0.06602603 -0.02901696 0.06454965 -0.00477412 -0.08702800 0.05511202 -0.05281725 0.01164865 0.04683692 0.00668824 0.03447264 0.26803830 -0.18798714 0.15326831 0.00918364 0.20260754 0.01537184 0.03045037 -0.00210861 0.08825183 -0.03819187 -0.00307801 -0.03775142 -0.06181807 0.23969258 -0.00267988 -0.02915808 0.01428165 0.02518464 -0.01879375 0.09646967 0.01525581 -0.02532646 0.07822613 0.00013322 0.01559645 -0.05316091 0.03462595 -0.15384137 0.10067012 0.09966820 0.07031700 0.13325792 0.05781491 -0.06456514 0.05747286 0.03966713 -0.03382106 0.11281875 -0.04015257 0.11617816 -0.13217566 0.06609525 -0.02295278 -0.08535898 -0.01531889 0.00308296 -0.07123598 0.01813241 0.02486934 0.05596463 -0.02208299 0.05154668 -0.10435285 -0.06823655 -0.00149636 0.15242376 -0.03206909 0.04360500 0.03270448 0.11264305 -0.08526746 0.03692980 -0.03241256 -0.00585508 -0.26400862 0.01588098 -0.01675374 0.00214890 -0.02446941 0.09131239 -0.30253392 -0.12777485 0.01808097 -0.11942489
0.51527304 0.26329361 0.06027365 -1.11195699 -0.05061224 0.38526101 0.39898744 -1.30599133 0.72093291 -0.54016638 -1.26119091 -0.57166714 0.39187792 -0.19653730 -1.01565359 0.43265255 -0.27717304 1.88212031 -0.27279026 -0.19824426 3.54281799 0.28904390 0.49232972 -0.61701353 -1.02090405 -0.98683373 -2.25934919 -1.48359224 0.64214497 -2.62955017 0.50373018 0.99680682 -1.23409020 0.39549038 -0.54793885 -0.48924301 -2.69077559 0.01189059 -0.29124880 1.01593953 -0.96638981 0.84245566 0.77307190 0.34161213 -1.64111453 -0.47556071 0.32552469 0.70128375 -0.34584417 -0.64195709 -1.52235859 -0.00467016 -1.29862983 0.83815076 1.06662847 0.15155347 -1.28347946 0.08886828 -0.49448617 -1.20058719 1.55082085 -0.31493784 0.67270169 -0.54462505 -0.85474375 0.41719352 -0.22301685 3.14570236 0.17230249 -0.33048306 -1.65674132 -0.63930678 0.96739228 -0.35976691 0.80990100 0.57588824 1.39859880 -1.48659491 -0.51971982 -0.05931534 -0.75024161 0.63865281 0.95138902 0.55051210 0.27231995 0.55240748 1.64072648 0.46030349 0.15282870 1.09355548 -0.56532230 -0.34198808 1.08385453 -0.20751358 2.38739542 2.21745537 -0.03320108 0.04253190 0.02011555 0.01093946 -0.02893340 0.02246233 0.03124707 -0.05999318 0.02748419 0.05382279 0.00923693 0.06748448 -0.10676326 -0.03208890 0.06070968 -0.02646486 0.03816248 0.03205083 -0.25544747 0.06904160 0.10029790 -0.05841764 0.08973321 -0.05505826 0.11369608 -0.14533865 0.01304969 0.28688046 -0.06068644 -0.08126671 0.08052429 0.04839211 -0.04929534 0.07419463 -0.14734788 -0.07135156 -0.06463745 0.02238396 -0.00236778 -0.09914063 0.02166775 0.00998568 -0.11286318 0.02055829 0.01115354 0.04186765 -0.03133511 -0.01870558 0.16407136 -0.06243282 -0.06765090 0.23220164 -0.07585538 0.01226526 0.21223339 -0.06694068 -0.18119253 0.16028874 -0.07572441 -0.01337345 0.01469282 -0.00005175 -0.01939015 0.08896158 -0.04803810 -0.03731397 0.00178646 0.03211174 0.03660369 -0.08075645 0.10065657 -0.02896692 -0.06965233 0.04550647 -0.02903335 -0.03813427 -0.00408242 0.02271424 -0.09782927 0.02070492 0.04816375 0.13448430 -0.03645571 -0.09372255 -0.28258557 0.14283099 0.17774985 -0.06802087 -0.00617489 0.03537839 -0.09382999 0.03397331 -0.00936176 -0.22445610 0.16282165 0.07170605
-0.29131721 -0.07500154 0.75209304 1.82556691 0.57695567 2.33182872 -0.80679914 -0.82533534 0.62244858 1.56772331 0.35804771 -0.16883363 -0.43369813 -0.64377160 -0.85967338 -0.06692464 0.56921020 -0.64273077 0.33978668 -1.65967019 1.71759568 -1.30019466 -0.00222922 1.01160883 0.66354071 -0.45767334 0.22499650 -0.38680673 -1.04426593 0.34285759 -1.23427085 1.03657035 0.56496085 0.19573140 -0.25744139 0.40746457 -0.27216312 1.55033571 -0.72781589 -1.03580437 0.65565756 -1.52322237 0.23664688 0.30996211 0.29437470 0.71345989 0.28799858 -0.75728362 -0.09129642 0.31735932 -0.48245874 0.76945165 -0.26530429 -0.27791446 0.34077126 -0.94467498 1.65351694 -0.35264957 0.32598723 -1.36712925 -1.36369666 -0.54083284 -1.59925653 -0.07295660 -0.10497103 1.28170827 -0.98456077 -0.87661938 -1.88520992 -0.17668384 -0.44297038 0.51403087 0.69385523 -0.03805642 0.85094369 1.12949365 -0.34693544 -0.52015337 -0.25538082 1.02354591 -1.21469212 -0.71787742 0.42753439 -0.17803484 0.66006415 1.76727343 0.42230123 -0.62561138 0.30080320 -0.23057680 0.87567910 -0.44649696 0.82882377 0.45692152 -0.53499108 -1.38656813 -0.02692833 -0.02102361 -0.01898388 0.14281326 0.08113698 0.11270568 0.16846368 0.05069636 0.11255109 0.04310003 0.06189901 0.06556469 -0.00153829 -0.02275659 -0.00813970 0.06650562 0.04601863 0.02893974 -0.02307684 -0.12122991 -0.17607091 0.01409820 0.04494447 0.01039139 -0.06573379 -0.01761466 -0.03740363 -0.00825270 -0.00597770 -0.00017055 0.11091557 0.13409585 0.00505662 -0.00231565 0.10008779 0.00954546 -0.11922570 0.03143342 -0.03398753 -0.11473726 -0.10730499 -0.09333755 -0.05725168 -0.04115226 -0.02817135 -0.06323211 -0.13331847 -0.03032887 0.09937250 0.01715755 0.05130091 -0.07021730 -0.04612809 -0.03463357 0.01089002 -0.01782046 -0.03044420 0.04027442 0.03410102 0.01203256 -0.10678877 0.01476135 -0.01234918 -0.08912339 -0.00899265 -0.16159366 0.01756703 -0.06918012 -0.01775028 -0.03612538 -0.02430854 -0.00910250 0.01912342 0.02781632 0.02096588 0.07684898 -0.00339257 0.01645172 0.08590314 0.30853422 0.08940612 -0.05519483 -0.05203899 -0.04116452 0.01263734 0.03066008 0.00494092 0.05306855 0.01790546 0.04003778 -0.06188278 -0.04026943 0.00792669 0.00884373 0.04165464 0.03294783
-0.77263013 -1.59017783 2.24935521 -0.51911521 -0.02373096 0.38480413 -0.19142500 1.52137810 -0.94198413 0.19204521 -1.94523816 0.10019282 0.87671517 -1.08125480 1.19842288 0.30019292 0.09088172 0.83498116 0.47809344 -0.05629340 -0.43547235 1.19719619 0.05841171 1.02222700 -0.22019290 -0.60151484 0.44114401 0.71123320 -2.26151333 -1.09328634 1.00354105 -0.77769774 -1.22757287 -0.04536024 0.13846845 0.37070440 0.64002597 0.52694260 -0.44397378 -0.49614385 0.34290668 0.01546000 -0.08569094 -0.24282279 0.49605035 1.24907954 0.63895020 -2.15100954 -0.36266682 0.41845660 -1.19626712 -1.37452089 1.50776269 -1.56607914 -0.97650669 3.72897323 -2.63475687 0.66569182 1.20899028 0.53419202 0.47558940 0.81515870 -0.50251657 -0.26837673 -0.44737873 0.14998780 -0.64047864 -1.11150321 0.70073278 -0.37514787 0.01738227 1.49572213 2.17605050 -0.41813764 -0.73026453 -0.86442659 -0.33125671 -0.18170435 -1.86207707 1.16989307 1.77334912 1.09391418 0.63453423 -0.75770474 -0.29120136 -2.15907394 2.46785294 -0.84233739 -0.33890323 -0.64537895 0.04777618 0.30020082 -0.10869384 -0.91884647 0.26720596 0.38148635 -0.01289502 0.03182433 0.03234121 0.01364007 -0.09467740 0.00171736 0.05004614 -0.07608892 0.00582270 -0.15152689 0.14293331 0.00750366 0.10779621 -0.10630701 -0.01729211 0.02899484 -0.02578653 -0.00729546 -0.07014888 0.01676755 0.02222152 0.07998326 -0.06057698 -0.05502219 -0.09141577 0.11670124 -0.09450064 0.06171454 0.14350874 0.07717065 -0.03519161 0.06394662 0.07927195 -0.02026637 -0.03942908 -0.00391288 0.02110130 -0.07667719 0.00964321 -0.03054621 0.13498113 -0.01188103 -0.00323533 0.02092556 -0.03452895 -0.01858517 -0.06953942 -0.00161761 0.01138792 0.06562960 -0.01089677 -0.03565290 0.10870912 -0.07702033 0.00971085 0.27589944 0.02626362 0.01368161 0.00752276 0.04486009 -0.03679368 0.09844869 0.01007419 -0.03363349 0.06786038 0.03166331 -0.00424615 -0.00160677 -0.02576783 0.03166223 0.03275287 0.01864640 -0.01862424 0.04856683 0.00312768 -0.06617348 0.12518717 -0.07628121 0.03409703 0.05599847 0.03603745 0.01001503 0.12318602 0.01209466 0.01201984 -0.10683600 0.02510491 -0.02482147 -0.19453060 -0.01942344 -0.01630241 -0.09149190 0.01146147 0.00732918 -0.17197690 -0.00283576
-0.50422569 -0.41287103 1.43922379 0.30077203 -0.85972964 2.15104928 -1.04146434 0.00176691 -1.45459354 3.51618833 -2.95333177 0.21226885 0.55307407 0.41768036 -0.06792257 -0.86422462 -0.31206748 -0.95320927 -0.10558717 -0.03593439 0.88697146 0.31041169 0.02097592 0.17776906 0.13687733 0.13768467 0.86844738 -1.29850086 -1.42846257 -0.61100371 -2.85267223 -0.28174448 -0.28610998 0.58134962 1.00569705 -0.43088333 -0.47066102 1.43562336 -2.48387807 -0.19600634 1.44649417 -0.62631556 -0.09459690 -0.80651339 -0.44908728 -0.38081019 0.23904794 0.10513091 1.18995476 1.53410929 0.64901566 -0.24934583 -0.87938062 -0.73928995 -0.53707444 -1.94559892 1.36147451 -0.11005412 1.29391450 -0.65711628 0.32812542 -1.52088257 -1.73265712 1.05076091 0.77631784 0.68789236 -0.77055514 -1.07721166 -1.20061575 1.37847589 0.29189345 -0.96542983 0.65193962 0.42579066 1.72219477 -0.66542980 -0.64803840 0.88314972 -2.28799737 4.05958541 -0.90738521 -0.36395749 -0.55091025 1.10919795 -1.02169016 -0.50476564 -0.82867335 0.83355350 0.52939667 1.40694987 1.27659033 0.83824444 1.79113184 1.70678019 -0.23677986 -1.05769659 -0.15327482 -0.17441734 0.04533764 -0.12074237 -0.06022509 0.02066862 0.00612098 -0.03334183 -0.04657317 -0.23563511 -0.27537849 -0.03875705 -0.06912701 -0.10172657 -0.00688470 -0.03070331 -0.03292900 0.01429560 -0.02676552 0.03534314 -0.04901683 0.09085232 -0.00141256 0.01613725 0.07778718 0.10128642 0.02014098 0.04168504 0.07959531 0.03318171 -0.07471781 -0.17158013 0.02791246 0.01600068 -0.04957126 -0.00549082 0.03759568 0.04138968 0.01761710 0.03785080 0.10803440 -0.00299023 -0.05610585 -0.04889692 -0.00577319 0.15796970 0.25640155 0.03077747 0.05346282 0.07770181 -0.02865774 0.03412153 0.05840883 0.01801875 -0.14353025 -0.19479704 -0.05136625 -0.10876881 -0.13811702 0.05527937 0.05985969 0.03832523 0.03563958 0.07819463 0.07039214 0.03879803 0.00624882 0.11270151 0.06858870 0.02124474 -0.03594878 0.03494230 -0.14958077 -0.18248266 -0.03669962 -0.00035553 -0.06040348 -0.02352273 -0.41066501 -0.26854568 0.03746725 -0.03336219 -0.05792202 -0.03871413 -0.08033473 -0.08687776 -0.00239812 0.08391707 0.06848469 -0.02294899 0.08097591 0.07596218 0.01001817 -0.04936812 -0.03158263 0.01339236
-0.59491140 -0.39738718 0.37668328 0.68449098 0.35811665 -0.35455097 1.46023256 0.09424395 -0.23795955 0.92848273 0.08120931 -0.51726103 0.02327889 -0.74930913 -0.92792468 -1.66137866 -0.89139277 1.49556197 -0.24933311 -0.27206512 1.07379244 0.40732024 -0.87908198 0.39309071 0.45300803 0.50345475 -0.79920137 -0.16894908 0.44419184 -0.40316613 -0.64002458 1.96463867 -0.79388649 -0.27423973 2.37894626 -0.31968934 0.74151182 0.36248088 0.71147522 -0.30457950 -0.39434283 -0.96314655 0.82339822 0.00356422 0.08262121 0.07339270 1.04014310 -0.43203886 -0.07078197 0.08047459 0.13575015 1.81975867 -0.26419633 -1.62051741 -1.42846372 -0.82203173 -1.25043799 -0.58304429 -1.70338740 -0.54366530 -0.33790219 -0.19309725 -0.76886702 -0.20022573 -0.53939576 0.41031398 -1.34105010 0.00959770 0.15414872 -1.26626975 0.28043657 -0.86152835 -0.18568520 -0.84068969 -0.14383896 0.12783397 -0.36235231 0.63484367 -1.27673024 -0.60889828 -0.35416645 0.46325182 0.07685497 0.71383444 0.11319630 -0.52713245 0.74193398 0.74590436 0.03601898 1.18754091 1.07806165 1.77996951 2.12493801 0.64044630 -0.04958176 1.05531775 0.02069759 -0.03590037 -0.09345068 -0.04678086 0.01575116 0.14384871 0.06157852 -0.00416502 0.05742024 -0.00719118 0.17805358 0.04199637 -0.02644642 0.00533757 -0.03388187 0.05090936 -0.12036585 -0.06605593 -0.00182545 -0.04812602 -0.07627006 -0.08832115 -0.12696792 -0.19117942 -0.03514558 0.05881856 0.07226813 0.00691845 0.07791319 0.03673753 -0.03937419 0.07624325 0.19500011 0.04167774 0.02491295 0.21696870 0.05856283 -0.02755703 0.03210319 0.07935690 -0.08709897 -0.12108526 0.00272154 0.02141312 0.02202854 0.00675170 0.03225763 0.02354725 -0.00198301 0.01455295 0.09045278 0.02450021 0.11056429 0.16894383 0.03005881 0.18267347 0.36818831 -0.16515321 0.07623668 0.26449297 -0.01464500 0.08727582 0.10460309 -0.00030370 -0.01479864 0.02398615 -0.02628954 -0.03159225 0.03238109 0.03280377 0.03664439 -0.00616698 -0.00997471 -0.02134785 -0.01911957 0.05682073 -0.00131589 0.10275081 -0.00156618 -0.01544701 -0.06213828 0.04406853 0.08645173 0.06084938 0.00793368 -0.02590474 -0.10555888 -0.03179799 -0.09313192 -0.20597563 0.07229571 -0.09390417 -0.22378647 -0.01404844 -0.04888975 -0.08553939
0.16080890 1.47693610 0.51766410 0.82089705 0.47520795 -1.08813167 -1.01244389 -0.34153703 -1.43783042 0.19473056 -0.09795584 1.13023103 -1.69083169 -0.68020994 -1.33982649 1.53387392 0.52685011 1.15593544 0.54397797 0.82838680 0.81190211 -2.37207231 0.34051555 0.22419639 -1.40714602 -4.18716494 -1.48101941 0.61776210 0.12694197 -1.53967866 0.16507418 0.14740062 1.38239234 0.83185235 0.18367773 -1.54378111 0.37457096 -0.38315769 0.76112293 -0.72792560 -0.52860065 1.53155252 0.92915375 -0.02647825 0.20673101 -1.68908730 1.04094774 -0.16398019 -1.30890186 -0.29424741 -1.75159199 -0.18687004 1.08631389 -0.59375541 2.31962878 0.38293257 1.00658134 -1.45036889 0.70442106 -1.07436744 0.48565543 -0.18656239 1.28460897 -0.10950999 0.47081667 0.79875471 0.01043298 1.34856180 -2.30667900 0.40638447 0.87622668 0.95277819 -0.45286116 -1.13677852 1.35961371 -0.22288167 -1.68099381 1.04169968 0.85128710 0.38156832 -1.77707046 -0.26829988 -0.62694890 0.51737930 1.17184320 2.55731053 1.89154959 1.07008279 -1.29712439 -0.89747946 -0.61819430 -1.57244817 0.63603635 1.02937813 0.08519187 -0.21553802 0.03880175 -0.04294640 -0.02415624 0.08149763 -0.11303803 -0.12751596 -0.04746515 0.06795838 0.10955699 0.01264782 -0.02283966 0.09320938 0.02804606 -0.15630986 -0.14559417 0.18751404 -0.15535525 -0.17210212 -0.00520576 -0.00521515 -0.03994078 0.14388999 -0.13139435 -0.17785974 -0.06324119 0.07227297 0.05764054 0.00303413 0.00540796 0.10949914 -0.03761815 0.02347944 0.03158195 0.02835127 0.10458567 0.04345994 0.03723617 -0.04215180 -0.02294903 -0.06271170 0.01630986 -0.02023435 0.00451682 0.04313946 0.04700448 0.00721465 -0.12661813 -0.07996027 -0.12788868 0.26181398 0.09476753 0.06995306 -0.06991110 -0.07799674 -0.10012617 0.07964665 0.11204054 -0.18738451 0.23924848 0.02582417 -0.00320301 0.00985025 -0.00418222 0.01962864 -0.03875344 -0.01599484 -0.00432874 -0.04819183 0.01068651 0.22063997 -0.21673629 -0.00796952 0.00201285 0.00468565 -0.00973710 0.02084276 -0.04380809 -0.06178671 0.05168122 -0.03751797 -0.01843709 -0.00032902 -0.00777132 -0.00122548 0.24296657 -0.12287877 -0.08054569 0.09108155 0.03435431 -0.08927946 0.00719349 0.04750603 -0.01644483 -0.02462797 -0.16538204 -0.09466820
-0.47231984 -0.77494889 -0.28301466 -0.88736418 -0.65723983 0.72884709 0.21603406 -0.89702820 -0.05656651 1.46523703 -1.40003894 2.86445539 0.43773393 0.04563426 -0.01946186 -0.12658886 0.36139008 1.99528278 -1.10525632 -1.15710654 -0.43254303 -1.06099948 1.25487912 0.18500586 -0.44575965 -0.21534671 0.81631293 -0.57417120 0.28368591 -1.82313873 -0.45392807 1.79886242 -0.11747330 -0.18511620 -0.27281101 -1.05324489 -1.47863940 -0.43529801 -0.77178778 -0.25691880 -0.50324682 -0.49207228 -0.79155082 1.95171042 -0.20654714 0.59289669 2.21346906 -2.01740008 -0.02616555 0.88276268 -0.25153298 1.21954433 -0.70247644 -1.35247551 1.82173619 -0.83033408 -0.45597739 -0.65051527 -0.41135682 -0.24365621 0.53579312 0.23194175 0.93052418 0.83309016 0.97359031 -0.92737299 1.12743112 -1.36760340 -0.29822123 -0.83523905 -0.44118528 -0.58791415 0.79764196 -0.22958950 -0.07646606 -0.12886716 -0.91497300 -0.56763245 -0.16703565 1.37555229 0.05631896 -0.04821473 0.58910143 1.50515109 -1.11563500 -0.67028625 0.31804640 1.20266360 -0.52773766 1.40281687 -0.02590289 -0.83789739 0.70953944 0.58638593 1.28392507 0.52219824 0.02578014 -0.01819318 0.10690419 -0.07555077 0.03769079 -0.01573179 -0.17693501 0.00979458 -0.31444021 0.07637347 -0.05660977 -0.19411553 -0.03736758 0.00173028 -0.10949930 0.19634365 -0.10383485 0.16794652 0.04117780 -0.10517618 0.04439272 0.02891184 -0.01983885 0.25846824 0.00493524 0.01038196 0.06528515 0.09735612 0.00763810 -0.12091264 -0.04127166 -0.11612640 -0.15654834 -0.07911844 0.04681613 -0.15175756 -0.02784442 0.02627919 0.00155064 -0.00217119 -0.00611965 -0.01306764 0.06629491 0.06220085 0.04567468 -0.06346119 0.00884156 0.22268397 0.00642311 0.04566726 -0.02518596 0.01278526 0.03400347 -0.05534030 -0.07547388 -0.08046192 -0.16309673 0.04319104 -0.04338741 -0.14238471 0.00925024 0.04913748 0.00525752 0.00720398 -0.02334244 0.05381707 0.07183365 -0.07408792 0.37767360 -0.01693778 0.01534991 0.02315965 0.00211050 -0.02875317 0.09342538 -0.00888627 0.00963555 0.09210961 -0.00604819 0.00936472 -0.11227191 0.04069352 -0.02435268 0.02041671 0.05877577 -0.03684120 0.11931148 0.00901159 -0.00331358 -0.01259437 -0.01983227 -0.03060660 0.10080512 -0.00936444 -0.02217292 0.02776860
0.56482626 0.09000501 -0.88514370 0.63423343 0.45153825 0.29788439 -0.70386318 -0.72803105 0.93447639 0.84211173 0.13791279 2.19599864 0.76881354 0.95233971 2.08828602 -0.49371366 0.44318901 -0.00489210 0.93333304 0.15458714 0.70602942 0.02005377 -0.90963290 -0.40450291 0.68263552 -0.50253449 -0.74049284 1.20565857 -0.48296743 0.04706300 1.69461153 -2.05177101 -1.74278522 0.74026087 0.07983811 0.44716467 1.15750117 0.21074509 -0.57972948 -0.33659334 -0.89663190 0.06444329 1.07522922 0.63272492 -0.98331472 1.61653837 2.04660184 -1.26712446 -0.32233016 0.65086683 0.20885255 -1.28596508 0.56261394 -0.73866757 -0.69381407 -0.58229677 -0.69958738 -0.52051772 -1.25183313 -1.44725074 -1.25340017 -0.60992078 -0.33303148 0.90690013 -0.73694985 -0.55187316 -2.84782224 -2.08110153 -2.71590814 1.34243670 0.26028024 0.10345944 -0.79817923 0.44359948 -0.06759504 -0.39749592 0.84576705 0.97427273 -1.51878596 0.74349372 0.68123682 0.37401346 -0.43327328 1.40603736 -0.61389493 0.62751666 0.70267420 -1.15211985 0.68967304 0.36685415 -0.85491847 1.07627061 0.98561371 -0.76574334 0.16738071 0.95155216 -0.01463168 -0.03096193 0.00993638 -0.11512361 -0.09732436 0.06709192 0.02672469 0.06413624 -0.03472315 -0.18910479 -0.20086658 0.12791597 0.00690892 0.22072839 -0.13681460 0.02108879 0.00276816 -0.06440220 -0.01954885 -0.05102817 0.02790596 0.00280222 -0.00362999 -0.00191032 0.02736702 0.07300901 -0.00643321 -0.00209528 -0.01979228 -0.00757330 -0.05804744 -0.22259969 -0.07287643 0.00575658 0.00178868 0.00595067 0.04525352 0.00101135 -0.06965315 -0.07613222 0.02311017 0.03494657 -0.03101758 -0.05609911 0.05125748 0.10477560 0.18262693 -0.14300592 -0.01388578 0.04427561 -0.02772344 0.01765437 -0.06390609 0.07083594 -0.01327232 -0.03045151 0.00359279 -0.01507062 -0.07647181 -0.05536384 -0.02817272 -0.09969747 0.04343980 0.05459818 0.05331731 -0.01824395 0.30546309 0.19970987 -0.04055033 -0.03808999 -0.03317746 -0.04231808 0.02987641 0.05029438 -0.01775160 0.02138927 0.00699209 -0.00875605 -0.02202512 -0.05476725 0.01785569 -0.00639458 -0.09831700 0.05423918 -0.04286980 -0.06874485 0.02869239 -0.00238052 -0.02620129 -0.00098006 0.06964951 0.17378037 -0.09221102 0.05234359 0.15706415 0.02420179
-0.13456851 0.42063764 -0.65091571 -1.19638932 0.00172275 -0.69514229 -0.28841895 0.84674279 0.52167010 -1.85178549 0.12904165 -1.23949808 -2.04989923 1.60150981 0.51650911 -0.05311860 0.28987010 -0.19024165 -0.13630762 0.54312947 -0.47167604 -0.32392969 -1.30693123 0.05785204 -0.06282874 0.65644128 -1.20765648 0.26115918 1.17608768 -0.65221492 0.72998312 -1.75049769 -1.39981831 -0.06019621 0.73729048 -0.30625712 -0.48180977 -0.61935933 1.15492803 0.03249942 -0.14517620 -0.58899993 0.10389446 -1.10162451 0.56364668 -0.41299305 -0.41298782 1.51266505 1.24825956 0.65192854 -1.58272072 -0.12869563 0.68508629 0.81747799 -0.93701600 -0.19106794 -0.70612082 1.00595954 0.47978865 0.57847689 0.85389475 0.81761195 1.23558987 0.59473501 1.34085279 0.65328130 0.52794720 -0.11574076 0.27519660 0.09883571 0.25426866 0.67662296 -0.08377002 -0.69508430 0.49454645 0.73570108 -0.30796226 -0.64968821 -0.27257769 -0.45990161 0.83693161 0.10326507 -0.24190838 -0.59013658 1.03131465 0.54271469 0.43977320 -0.10552804 -1.22783945 1.38368700 0.78205542 -1.60161481 -0.97949395 0.47032839 -0.99702892 0.19172594 -0.03874740 -0.02896417 0.02814012 -0.02730894 -0.01049322 -0.04270192 0.06716629 0.00288659 0.03482780 -0.03682709 0.05808862 -0.02148201 -0.09779506 -0.43311758 -0.00259714 -0.03444836 -0.03993153 0.02132893 -0.03849201 -0.05666468 -0.05271267 0.00968824 -0.04721630 -0.00028500 -0.00744688 -0.01035642 -0.03918457 0.02242613 0.05982127 0.03540058 -0.00414180 0.09330539 -0.01407383 0.01801010 0.07668001 -0.03319055 0.00827131 -0.00009938 0.01685231 0.01293456 0.07513832 -0.02728775 0.02376696 0.00422507 0.01761459 0.00025629 -0.10114069 0.03526765 -0.07759709 0.04672763 0.02248951 0.13526275 0.16599661 -0.11145268 -0.01163194 -0.01523211 -0.01470202 0.11895659 0.13458788 0.00555131 -0.00901369 -0.18963627 0.04254639 -0.03264456 0.05195469 -0.01551395 -0.03648877 0.00425714 -0.01703113 0.03565075 0.04702052 -0.00829007 -0.01244421 -0.08151601 0.02734011 0.00587769 -0.05718708 0.00489026 0.03424704 0.00543016 -0.02835496 -0.08071368 0.06122333 -0.00827428 0.00394605 -0.08211270 -0.01051619 0.02355472 -0.06358397 -0.00654213 0.09113630 -0.19185734 -0.03751895 0.03738118 -0.28647926 0.15903204
-0.41791125 -1.69298896 -0.18630773 0.56264643 0.52090092 -0.21197602 -0.38443488 0.12859920 -0.39492915 -0.19220527 -2.36354274 2.69660645 0.48878375 0.23691577 -0.25598664 -0.71546315 -0.43587259 0.84833233 0.16870649 -0.52664621 -1.14845637 1.12164386 1.70109056 3.77064449 0.10586483 0.66622494 0.07983317 -0.06571679 -2.37566949 -2.84352567 -0.00558359 0.50741006 0.63766855 -0.45332680 1.38968490 0.68666408 0.90618476 -0.66802948 -1.47126796 0.27158046 -0.03149547 -0.72360253 -0.22875706 0.85398146 0.34875397 2.77976312 2.30084414 -4.34028939 -0.63864991 -0.04890879 0.08296026 0.27823962 -0.49053554 -1.45523599 -1.34601729 -0.92648895 -1.11880705 2.52944382 -0.59321034 -0.13053851 0.29054737 0.97811680 0.75795925 -0.35774612 -0.52267418 -0.39947227 -1.19654212 -0.37055092 -1.46145053 -0.25107066 0.68145718 -2.35763628 1.59138535 0.50716355 0.07250279 -1.06946480 -0.49831484 1.93864222 -2.82097217 0.10731778 2.11461871 -0.04285628 1.40962531 0.38353573 -1.97209456 -0.33404478 1.67627163 0.58319936 0.89929192 1.71720393 0.68667503 0.25989869 -0.24983539 -0.20585154 -1.26954994 0.93711992 -0.05879380 0.00928308 0.07344559 0.04344960 -0.03124790 -0.05624678 -0.00035757 0.04585158 -0.01394550 -0.04330203 0.02686154 0.18705693 -0.02693853 -0.05699174 0.00507776 0.02898652 0.09202225 -0.07036586 0.02077257 0.04099241 0.07614453 -0.00545964 0.02017253 -0.31360389 0.01437202 -0.00644768 -0.05425329 -0.02577654 0.14283851 0.33988762 -0.02734068 0.01379019 -0.04770728 -0.04162578 0.02566738 0.14272722 0.00095818 -0.04955583 -0.22255887 0.07663873 0.01647319 -0.00441334 0.07346738 -0.00322345 0.02125027 0.15546006 -0.17032616 -0.31913070 0.00729548 0.04264248 0.00289955 -0.01477687 0.03328036 0.19608347 0.02241118 -0.02446411 0.05190538 0.09273633 -0.05802206 0.16164955 -0.00676403 0.02410035 0.12930006 -0.00817710 0.02393138 0.10751277 0.15295077 0.05310254 -0.26982034 -0.04183525 -0.02655654 -0.11377977 0.01634200 0.00318380 0.10581590 0.06761145 0.07422743 0.09296456 0.02268808 0.06614297 0.34555668 0.03202736 -0.01154331 0.11890372 -0.04523229 -0.03375788 -0.02697943 0.10711883 -0.04723661 -0.07267982 -0.00318716 -0.02763852 -0.02091046 -0.05609986 0.03985639 -0.10649855
1.08070002 1.18384469 -2.50865214 -0.52215388 0.29698952 -0.32137903 1.70125748 -1.30111987 1.10120035 -0.57145056 -0.48390365 1.73705386 -0.07472077 -0.99807695 0.42987689 0.86946177 0.72177132 1.54946903 -0.77146648 -0.38623675 -0.25756280 0.67574571 -0.41233070 -1.18575887 0.37596818 1.47212173 -0.91375738 1.17522655 0.22515149 -0.29058966 0.82465592 -0.93983008 1.97654703 -0.16425894 -0.22128277 -0.51379436 -1.24475861 -0.83398364 0.02714473 -0.38356707 -2.03961434 -0.60007655 0.00891640 1.39991638 -1.16669071 0.57063530 1.44797871 -0.06019250 -0.30960781 -1.28664560 -1.11343774 -2.05376156 -0.52715217 1.06545495 -0.76394672 -0.59925808 -1.44679365 0.19952337 -0.20455980 -1.18538784 0.27620262 -0.97221954 -0.05411062 0.67839186 -1.31034516 -1.44580875 0.08666975 0.71351129 0.53811971 -0.35727895 -0.35952848 -0.54104884 0.00364649 -0.26903769 1.79447574 -0.16368482 2.04926594 1.61809899 0.12979855 -0.37153924 0.57282831 -1.57459853 1.33643136 -0.66163542 0.79961727 1.18276554 1.49550154 -0.14037230 -0.37159467 0.38319766 -0.50645698 1.52119052 0.20007402 0.14566674 0.33732069 -0.22236591 0.13425714 0.16597309 -0.04754950 -0.01084375 0.04334180 -0.02204330 0.06095856 -0.03502298 0.03023876 0.10997860 0.11248762 0.00073167 0.01715561 0.02339353 0.05551689 -0.02253603 -0.04608799 0.04054903 -0.12782954 -0.04026041 -0.06591184 -0.05912461 -0.10039229 0.02230195 0.07487390 0.16771493 -0.00428181 -0.04456887 -0.08767661 0.03064236 0.02999161 0.08995406 0.00742135 0.04870538 0.04719241 -0.01529852 -0.02729779 0.03114213 0.02648936 -0.15275881 -0.07489486 -0.06578870 0.03288078 -0.03177215 -0.03243661 -0.00982819 -0.01034082 -0.01157783 0.09383041 0.09071075 -0.07081353 -0.00223282 0.05736392 0.02983020 -0.05119386 -0.04924155 -0.00971419 0.03578277 0.14230702 -0.03560067 0.07006520 0.06160835 -0.00223780 0.05236484 0.04874973 -0.00959196 -0.12849403 -0.16231767 0.02623961 0.03585879 -0.09453088 0.00517252 -0.03718846 -0.02671479 0.01387173 0.04289479 0.03435393 0.00387232 0.07428719 0.06421769 -0.01432072 -0.01076857 0.14028690 0.00850968 -0.03006485 -0.10591900 0.00268359 0.00472360 -0.09187069 0.01832648 -0.10904137 -0.00999083 0.02299721 0.04669926 0.04372023 0.00775796
-0.72534028 0.61854771 0.01635547 0.92370482 0.39702566 0.40784570 0.67575988 0.80731830 0.25198339 -0.22550551 1.96112015 -0.03676830 0.76943930 2.08758586 0.16728849 0.18769739 -0.36535549 -0.64027324 -2.36320286 -0.66723307 1.31788851 2.57061748 1.70425591 -1.60590818 0.47169676 -1.63724695 0.27215554 -0.04163608 -0.56477573 2.13856459 -0.20524026 -0.19069683 -0.06117066 0.28404837 0.10087754 -0.57103402 0.03995146 -0.71707690 -0.17901492 -0.07295081 -1.26449757 1.15598724 1.51297896 1.32056793 0.35226173 -0.00553958 -0.10543834 0.50204988 0.01762764 0.35203307 -0.25672109 0.42270142 0.07845751 0.49321763 1.05997102 -0.02448999 -2.57567174 -0.79964766 0.47169152 0.92712958 -1.03055398 0.28858533 -1.83442288 0.41093237 -0.17152216 0.93805381 -0.73388037 0.70153141 2.91461911 -0.49741149 -1.27186727 -0.74324040 -0.46421264 -0.15679591 -0.90709889 1.29677900 -0.51798140 -0.53177300 -0.07619494 -1.83101519 0.24706936 -0.22980645 0.30095378 -0.15357268 -1.99195761 -2.64113916 -1.03786845 0.54980061 0.02144317 -1.16152954 0.20953065 1.68417720 1.11219136 -1.94015659 -0.76904007 -0.91859340 -0.00802901 0.00064358 0.01687238 -0.02522505 0.02281672 -0.04814436 0.03394976 0.01206826 0.01285092 -0.00369410 0.01243749 0.03787023 0.02168121 -0.02977932 -0.03433338 -0.02061623 0.01508156 -0.01138310 0.28309272 -0.07730526 0.15689632 0.16638083 -0.11461133 0.16041739 0.03594978 -0.01833931 0.03614567 0.01225197 -0.03333112 0.04469679 0.04936821 -0.04730673 0.00753369 0.06047381 -0.01171897 0.03303820 -0.06699744 0.01623654 -0.03741928 0.29233273 0.03127851 0.20190738 -0.01015082 -0.00792553 0.05002720 -0.03303276 0.01742278 -0.00015343 0.05083900 -0.00390663 0.03268507 -0.04356645 0.00128252 -0.00445679 -0.14231641 -0.02914991 -0.20609357 0.02142199 0.00761725 -0.03455769 -0.03271437 0.00296992 0.03422891 -0.05682061 0.01769603 -0.05137129 0.12012018 0.01293360 0.02392179 0.18863900 -0.14138247 0.17115809 -0.02333611 -0.04193945 0.02604775 -0.10314372 0.05694275 -0.10895601 0.01268873 0.04495707 -0.01179165 0.01739168 -0.02034456 0.04193797 0.25782406 0.00783598 0.16275449 -0.04977542 0.01384997 -0.02483080 0.25084097 -0.27381563 0.10062882 0.18196011 -0.06710497 0.10165358