0.04361343 0.01880273 -0.05942269 3.61910597 0.01884356 -0.06649377 0.00039694 3.57909875 0.02068944 3.55122478 3.54083350 -0.00764125 -0.06650367 -0.04525861 3.51928575 3.53834136 0.03823825 3.50773630 -0.03423978 3.55229783 3.51516158 3.57368381 3.54087694 3.51392021 0.03135100 1.75160372 1.85251096 3.57599824 1.76898960 1.81647327 0.01752909 5.28649657 1.77920972 3.53781298 5.34726818 1.82359247 -0.01162137 1.80185495 5.32321070 3.55837637 1.77408741 5.35015660 0.02542326 5.31279800 5.34707938 3.58897696 5.36661118 5.33160941 1.79301015 -0.02100138 1.80452758 5.30249415 -0.03274287 1.81773259 1.73105024 3.57275089 1.78808370 5.34125280 3.53140730 1.85009391 1.79811521 0.01032043 5.37476004 5.36093765 -0.00946441 5.32446210 1.75354515 3.52052788 5.34557356 5.30124692 3.55622687 5.38423956 1.75581147 1.76308895 0.00003913 5.32785836 1.75530149 -0.00862824 1.81190167 5.37427241 -0.07216176 5.28431157 5.32146896 -0.00998244 1.80022597 1.81735680 3.52149150 5.27788572 1.80240782 3.47684893 1.72436882 5.30465128 3.54151582 5.35877202 5.36722549 3.54871887 0.01198061 0.04466209 0.24482427 3.70878613 0.05476644 0.21128154 -0.08194770 3.60579725 0.29458274 3.52758763 3.57052057 0.31222019 -0.06802522 -0.04679373 3.20917483 3.52705118 0.02682316 3.21867976 -0.04569341 3.52825714 3.22344296 3.62087653 3.59948233 3.21029686 0.03307876 1.75759454 2.16936333 3.61334529 1.70842735 2.08793800 0.02028665 5.28396390 2.08769464 3.53850695 5.36243816 2.14586885 -0.00686383 1.78148324 5.02760076 3.51682317 1.69250696 5.06473502 0.04585408 5.28101569 5.02950824 3.57260520 5.33263382 5.04348927 1.78417356 -0.03139802 2.12552942 5.27347375 0.01749963 2.11364623 1.70764213 3.57447878 2.07875019 5.33751814 3.52206726 2.15973309 1.75482498 -0.07439149 5.09277373 5.34568138 -0.00152581 5.04062782 1.72129119 3.51467532 5.02901381 5.28316300 3.58695701 5.09688822 1.83182728 1.83182805 0.29981670 5.35223933 1.71756680 0.30410621 1.79697668 5.36545146 0.23838672 5.35597825 5.35404035 0.26139618 1.76267712 1.82407780 3.20414946 5.30310800 1.82521710 3.19170170 1.67936209 5.25061278 3.23347294 5.42573335 5.33208488 3.27754439
-0.01064494 -0.01719283 -0.04630687 3.55031901 -0.00395156 0.00157800 -0.00023038 3.54539121 -0.04098067 3.54364961 3.56686903 0.00031086 0.00074337 -0.01740346 3.52624510 3.51567704 -0.01586548 3.51076930 -0.01634534 3.52455607 3.54785485 3.53891770 3.60923411 3.56818074 0.02279158 1.77974605 1.79689919 3.56787727 1.76268297 1.80916061 -0.01335602 5.34894445 1.79206848 3.54495503 5.33457709 1.82411790 0.03716911 1.77247293 5.38912094 3.51094535 1.73560180 5.37294269 -0.01101624 5.31415060 5.32300544 3.57277180 5.31635004 5.36257638 1.71473142 -0.01852627 1.83178989 5.32736795 0.02092934 1.80814925 1.77640391 3.55612103 1.78708129 5.33023001 3.55448387 1.78620868 1.77779343 -0.01683127 5.36631998 5.30059135 0.01467167 5.32395587 1.75647296 3.55748802 5.37713169 5.32076778 3.60105122 5.40376700 1.74292391 1.85660919 -0.01994577 5.30265609 1.75305624 -0.03639016 1.74314990 5.35684069 -0.07902561 5.31784235 5.29395650 -0.06686500 1.76137216 1.74033156 3.48562157 5.33963169 1.75873280 3.48680362 1.75294326 5.28264715 3.52659548 5.29761320 5.30348993 3.52963870 -0.02804376 0.02684572 0.26868458 3.53124590 -0.02727159 0.29965514 -0.05489011 3.58486502 0.23539991 3.52617556 3.54758122 0.29158710 0.00364169 -0.00283944 3.24167654 3.44792428 -0.04358021 3.23674718 0.05218948 3.57032938 3.28047859 3.52053881 3.58728616 3.28659838 0.00829737 1.73912023 2.09123689 3.50814958 1.71016577 2.09150921 -0.00881388 5.33663381 2.10274023 3.52750124 5.35725739 2.13114330 0.02919595 1.76332749 5.10160143 3.50372241 1.73306443 5.08790403 0.02007215 5.31676310 5.02818652 3.58170444 5.32989846 5.06143284 1.72568786 -0.03134479 2.13436592 5.39179007 0.02302438 2.11098840 1.82819995 3.49930914 2.09261891 5.30510077 3.51479024 2.07724402 1.84312013 -0.03590408 5.05541913 5.29514790 0.01574116 5.03324643 1.74806730 3.56740876 5.07010649 5.27586310 3.63908974 5.08877549 1.69980791 1.90055445 0.29114583 5.24250884 1.80401089 0.23314046 1.82189395 5.33035330 0.22297756 5.41771331 5.30399034 0.22031452 1.73476905 1.73516786 3.17355184 5.36673871 1.73785549 3.20188560 1.82089123 5.30232072 3.21326848 5.30086939 5.30495370 3.21759329
0.02832303 0.03495368 -0.09646183 3.52079170 -0.00334212 -0.02408611 -0.00727641 3.59834884 -0.01770968 3.55178480 3.54359665 -0.02099530 0.02107311 -0.01830278 3.50864627 3.54543589 -0.02311073 3.46582229 -0.00999741 3.57668195 3.48713090 3.55957397 3.53404010 3.48371286 0.00685242 1.82217352 1.79045977 3.52387816 1.78573071 1.80041478 0.01353340 5.36173276 1.86145533 3.53562699 5.30204344 1.81012772 0.03931767 1.75733081 5.38235640 3.50206169 1.78316319 5.37859150 0.00905752 5.34646819 5.37177965 3.58946424 5.31677328 5.38591935 1.74853368 -0.00861598 1.83924391 5.32319829 -0.04024771 1.77421340 1.80337694 3.49987495 1.82923185 5.30096287 3.51836177 1.74851809 1.73487762 -0.01898522 5.35353140 5.30012264 -0.03615148 5.34787532 1.75235323 3.57674758 5.38126617 5.30463466 3.57128133 5.35684134 1.76259868 1.77253309 0.00553781 5.30794521 1.80066567 -0.03011957 1.72122724 5.28134505 -0.01509749 5.34851623 5.31908660 -0.00404727 1.79046179 1.77887555 3.56927667 5.31186122 1.81222887 3.51135959 1.72216550 5.31890543 3.47232777 5.31425175 5.31863143 3.47017310 0.19789255 -0.12862966 0.08680592 3.69087185 -0.21103414 0.11180749 0.23029975 3.41113754 0.08205240 3.73286503 3.37454215 0.13773017 -0.16462781 0.09891293 3.29725835 3.39546313 0.16828169 3.31564509 -0.12548992 3.83085907 3.35637543 3.41004779 3.70163204 3.29543648 0.23683440 1.69442037 1.91633556 3.63716866 1.55184418 1.93366868 0.11979890 5.18991178 2.05311082 3.70633359 5.11958351 1.95967643 -0.08545618 1.99248717 5.26204572 3.26082084 1.89217735 5.20242786 -0.19785685 5.52625751 5.24523531 3.41917799 5.49627456 5.23908967 1.92688087 -0.19279790 2.00098402 5.45547990 -0.21717376 1.99499139 1.99606434 3.31967509 1.97642955 5.46835028 3.37058140 1.94707221 1.58045994 0.13990827 5.17481006 5.10964357 0.19408256 5.23562551 1.56856639 3.80866852 5.29459677 5.11994097 3.76240647 5.17810817 1.98276922 1.57462117 0.08808914 5.42061222 1.63773547 0.20578089 1.86580556 5.08419313 0.13588716 5.52872070 5.19491631 0.21233411 1.64813923 1.96429098 3.34865488 5.11917614 1.92804774 3.28135245 1.54865280 5.53281062 3.33126847 5.13678710 5.50731233 3.29843337
0.01443326 0.01110806 -0.03050213 3.50940765 0.04176921 -0.03453432 0.01563778 3.59020651 -0.03627607 3.55410228 3.61517687 0.00122622 -0.00143722 -0.02182282 3.49420099 3.54633857 -0.06105552 3.50928143 -0.03367912 3.51734081 3.51174195 3.52095569 3.53908481 3.50477045 0.01012066 1.77765007 1.82944590 3.58530500 1.76790339 1.76687150 0.00406974 5.36974188 1.76375787 3.59488561 5.29017545 1.82054981 0.00426720 1.74933355 5.33298403 3.54368283 1.77990963 5.38403803 0.03557292 5.36890424 5.37406506 3.56903527 5.30958333 5.35380314 1.83430606 -0.00940769 1.76271324 5.29857053 0.01901932 1.81231776 1.79410513 3.51484779 1.85536193 5.37501850 3.54922217 1.76375091 1.77707031 0.02022644 5.36883901 5.31421048 0.02716551 5.30700538 1.76278580 3.56911208 5.29009879 5.32305141 3.53795462 5.38659923 1.74687814 1.76564554 -0.08459886 5.34673984 1.73870369 -0.03187069 1.85424416 5.33501145 -0.03384550 5.25213242 5.29456804 -0.04245892 1.77569424 1.79295382 3.50704647 5.35006732 1.78815158 3.53352518 1.82326768 5.27183334 3.51525666 5.32376756 5.28236623 3.55370969 -0.04523806 0.09502197 0.25907378 3.39550285 0.16223636 0.21680589 -0.03943478 3.58134258 0.24209570 3.55067598 3.58979822 0.29608335 0.12892781 -0.01661196 3.24669324 3.61795525 -0.12194898 3.21362377 -0.02564966 3.54769228 3.23151307 3.63721653 3.41555416 3.23481563 -0.08717188 1.87495165 2.09762041 3.50240256 1.78713019 2.06978544 -0.11263768 5.34521582 2.02829967 3.46816905 5.28061539 2.08366321 0.02144864 1.75651044 5.03261218 3.57649915 1.67864891 5.12462303 0.03009216 5.26085438 5.07448919 3.64441395 5.20667634 5.05837224 1.69641488 0.08954692 2.00097173 5.24659096 0.03764516 2.10667157 1.73693276 3.62709949 2.11324625 5.28794360 3.57126066 2.05797545 1.95040362 -0.00902979 5.11225400 5.41854159 -0.05741050 5.05619825 1.82730276 3.53870172 5.02165678 5.31034163 3.48290254 5.10709374 1.72539739 1.84716031 0.21301339 5.25583965 1.74150416 0.24681866 1.80577937 5.37927676 0.25358763 5.14079019 5.38044555 0.22039821 1.87842664 1.80502865 3.23797619 5.42311947 1.68395200 3.24388572 1.84447399 5.18890593 3.23079190 5.36703511 5.23300793 3.25111779
0.00395580 -0.01293188 -0.00284582 3.51715593 0.03128695 -0.01016457 0.04147974 3.54338312 -0.07554458 3.57770414 3.57535694 -0.04513040 -0.00927550 0.04026240 3.50200282 3.53897030 0.00340807 3.51050037 0.04244065 3.52644156 3.53317728 3.52481505 3.55956541 3.50947229 -0.00296843 1.79903555 1.79775720 3.51359036 1.88598478 1.74439733 -0.00101449 5.34436720 1.80689690 3.45592073 5.32066148 1.80156496 0.02517277 1.83642947 5.42097261 3.56840293 1.72546003 5.38811939 0.01582307 5.33155871 5.35687414 3.54134070 5.30569198 5.33454529 1.74976506 -0.02085308 1.77094571 5.33787792 0.02809257 1.78803606 1.76550114 3.52093880 1.81009738 5.29270245 3.56429292 1.78662509 1.84265611 -0.03218989 5.36474399 5.35199271 -0.01734246 5.35682956 1.78272305 3.60670462 5.37958491 5.28783581 3.51476946 5.40779819 1.77240560 1.75664632 -0.01825416 5.25757078 1.78560485 -0.02505129 1.77020969 5.34700021 -0.02032045 5.35650583 5.33297631 0.01218653 1.77248608 1.79298810 3.56154451 5.34862703 1.79538162 3.46825239 1.75808072 5.39647388 3.50275122 5.32481188 5.33231400 3.51516919 -0.23093308 0.03971894 -0.14753521 3.22911266 0.09110106 -0.11706933 -0.25587643 3.54738086 -0.12857187 3.29583336 3.62618005 -0.13993318 0.26497865 -0.05778076 3.53549719 3.83220634 0.00523353 3.61984273 0.35031632 3.47932583 3.60813423 3.82971776 3.63184895 3.55428413 -0.26854020 1.86038042 1.66496341 3.24153367 1.90444243 1.66921374 -0.29677421 5.29511546 1.79489914 3.16842151 5.37222612 1.71715668 0.29058787 1.75674455 5.54789105 3.85026254 1.79546456 5.48288366 0.25584329 5.27575147 5.50674253 3.78528660 5.24160568 5.45172005 1.45376283 -0.00014772 1.69574375 5.10900696 0.06717881 1.63496340 1.46237383 3.51756244 1.70552131 5.01704248 3.65122033 1.64998103 2.11096221 -0.03461845 5.43985512 5.62994297 -0.00207486 5.39015837 2.06761450 3.62015136 5.49616322 5.56979289 3.59744301 5.51220864 1.46193382 1.73501371 -0.05259438 4.96262509 1.75922609 -0.07870437 1.46514594 5.38703870 -0.09733634 5.05532190 5.35231419 0.03153573 2.06198740 1.77357758 3.63971015 5.63010356 1.77525921 3.60397140 2.06051641 5.37933104 3.50271039 5.60448794 5.34744329 3.65689724
0.03268487 0.01582854 -0.01065707 3.52240289 0.02169726 -0.04583120 -0.04715608 3.59122673 -0.07245395 3.53310640 3.56092772 -0.01855265 -0.07610652 -0.01152294 3.54023735 3.54424954 -0.00696575 3.52685198 0.05750488 3.55177836 3.52856125 3.54940639 3.57571529 3.51024556 -0.03755464 1.78805432 1.78286479 3.55239532 1.75557816 1.72444996 0.01748640 5.26494011 1.84832870 3.48474145 5.29281105 1.77401639 -0.07684919 1.76666749 5.35370924 3.59291039 1.81125065 5.33035576 0.03039118 5.30805554 5.36182599 3.54344833 5.36804692 5.35014407 1.74783111 -0.01513559 1.84347859 5.35405597 0.02065814 1.79824006 1.74820250 3.56749059 1.81717328 5.30795812 3.52548821 1.83580770 1.80833199 -0.04931310 5.34757617 5.33637315 0.06138287 5.34026616 1.79743256 3.55594740 5.32565652 5.37646699 3.52129836 5.33668810 1.75551575 1.82986965 -0.04237153 5.38869949 1.81648607 -0.02668330 1.80420179 5.30566067 -0.08466079 5.31573142 5.31663939 -0.01249815 1.77053256 1.74095121 3.47323597 5.29854351 1.75492472 3.51452929 1.72010333 5.29881131 3.53224540 5.33659177 5.33159356 3.45683269 -0.17525166 -0.13372020 0.12269896 3.25942789 -0.07237542 0.07197839 -0.28962338 3.51724023 0.10738078 3.27976610 3.45482102 0.12372648 0.20557845 -0.01346409 3.42596286 3.83657160 0.03257850 3.43554592 0.28135303 3.63771709 3.37370872 3.75842235 3.65305088 3.33479207 -0.31620115 1.73343990 1.91487849 3.31574226 1.67243983 1.91797167 -0.22462948 5.13725734 2.01335602 3.21276404 5.20869965 1.88116807 0.17768616 1.83459503 5.18015339 3.86008727 1.89095592 5.23986145 0.28408059 5.32980150 5.20912973 3.77984080 5.47133029 5.24679710 1.50228244 -0.13782281 1.95514988 5.08057290 -0.06655736 1.90779106 1.49768097 3.51407556 1.93156338 5.04880385 3.44181024 1.93943354 2.10884241 -0.02288907 5.31178252 5.61331885 0.10150994 5.25043394 2.06482277 3.65968915 5.18745233 5.65841511 3.51870192 5.24189897 1.46141124 1.76914179 0.02858994 5.09031609 1.77587384 0.02772945 1.57465962 5.23298729 0.06185849 5.01710986 5.26894774 0.05501197 2.04097245 1.84131858 3.34032652 5.55686336 1.87543725 3.36891468 1.99969759 5.39289294 3.43669653 5.62248997 5.43388605 3.35310477
-0.00831347 0.03126174 -0.02897412 3.56502653 0.02748086 -0.06071470 -0.02337754 3.53057671 -0.02209373 3.54010013 3.55469035 -0.02090633 -0.00881468 0.02118673 3.54791384 3.56597962 -0.02357849 3.49474341 -0.01581291 3.51434864 3.48365055 3.50476619 3.53437675 3.52359797 -0.02285301 1.76598690 1.79392172 3.55688105 1.70696322 1.80425321 -0.03269038 5.41069928 1.78336714 3.55944360 5.31038938 1.79861138 -0.01485445 1.78111833 5.35938246 3.54832106 1.78504359 5.31347920 -0.02359614 5.26916793 5.36690621 3.54511811 5.33452124 5.36872513 1.71259827 0.01928306 1.82293521 5.33542274 0.01130208 1.83108693 1.78884193 3.59432737 1.84555030 5.31404112 3.54413434 1.80159266 1.79495904 0.03282607 5.40032936 5.29374124 0.02971021 5.33746654 1.71011226 3.53189679 5.39415839 5.38065105 3.53562766 5.38891888 1.80701756 1.77339457 -0.00573341 5.32012060 1.80127233 0.00319639 1.78689904 5.31802961 -0.00211375 5.33671658 5.33774932 -0.03517020 1.80052422 1.78480655 3.47236048 5.32744842 1.78371716 3.48177143 1.81547934 5.32326929 3.51974763 5.34105786 5.33598931 3.51531003 -0.01300389 0.08491633 -0.31326124 3.49566065 0.08860252 -0.33437998 -0.06803343 3.52878250 -0.32168062 3.57230937 3.65700055 -0.31019684 0.06399048 0.02360657 3.83343902 3.59443057 -0.16904251 3.78031777 -0.06262431 3.46905864 3.78188800 3.57610236 3.52386604 3.81687668 -0.02495328 1.82584894 1.50866728 3.47285372 1.82205928 1.55605462 -0.05611667 5.47226754 1.46855827 3.44646704 5.29084039 1.53234949 0.00219617 1.73436469 5.66945057 3.66213810 1.77012325 5.56818865 0.03096178 5.21163255 5.65505639 3.65248619 5.29946011 5.66164296 1.71591646 0.05113873 1.50775588 5.27381386 0.06725521 1.53790295 1.71037585 3.60165376 1.57588596 5.23355463 3.52142693 1.49892575 1.78401107 0.02693296 5.70089330 5.24656170 -0.03240591 5.63783075 1.72842653 3.47775563 5.70858607 5.43247938 3.48631982 5.67218349 1.79798860 1.83595425 -0.29879465 5.28354848 1.79778496 -0.27823734 1.81586785 5.28568956 -0.28032750 5.28182891 5.38537876 -0.34034017 1.85454357 1.73503073 3.76085741 5.42404138 1.69912624 3.73216753 1.86042685 5.34453397 3.83796034 5.38048821 5.30194789 3.80677723
0.02536378 -0.01109601 -0.00931921 3.58625029 0.03305856 -0.06763337 -0.02208067 3.59070903 -0.02495425 3.52254373 3.55047336 -0.02198423 -0.01374970 0.00178860 3.53308807 3.59334037 0.03057538 3.47617675 0.05705586 3.50703229 3.50290125 3.54515493 3.57803616 3.53287864 0.01402359 1.79043582 1.84290923 3.54307265 1.77800621 1.79606148 0.01218396 5.34141798 1.81089441 3.53975141 5.32510200 1.76315035 0.02869029 1.78593014 5.34932225 3.57220027 1.75072327 5.31107994 0.01030196 5.29668578 5.34891659 3.51059093 5.30392104 5.37404546 1.74859100 0.00780402 1.83852346 5.30627415 0.03493682 1.83119779 1.78706822 3.53223336 1.78463734 5.33940751 3.53897270 1.83215071 1.75492629 -0.03584328 5.38624826 5.34989319 0.02946461 5.38966683 1.75593731 3.54520124 5.36688373 5.33949868 3.60531087 5.37375899 1.78963076 1.76130701 -0.01096840 5.34643152 1.81719812 -0.04924211 1.76587505 5.35915846 -0.02005650 5.32206741 5.31586226 -0.01934234 1.75577619 1.73450434 3.53316583 5.34952681 1.73820388 3.53565778 1.77157886 5.35584484 3.52155944 5.37331315 5.39558294 3.53080605 0.06776046 0.03221261 -0.28654331 3.60498051 -0.02604811 -0.35197128 0.03783167 3.60693406 -0.31793240 3.65276358 3.62776551 -0.27488407 -0.02275883 -0.01392577 3.83499823 3.53490507 0.02071161 3.75151048 -0.00624375 3.52201154 3.80032533 3.45832045 3.54446704 3.83908932 0.04667224 1.88163820 1.57856233 3.61287303 1.78332116 1.52621798 0.08232723 5.36368121 1.49985278 3.59079233 5.34466200 1.47603700 -0.02797227 1.70792569 5.61983509 3.44265619 1.78942165 5.59319988 -0.06907913 5.37395560 5.64844100 3.47634139 5.25646294 5.64570803 1.87736435 0.09099463 1.59228977 5.28329894 0.07129982 1.51840811 1.84765992 3.54394746 1.51374870 5.45442581 3.61624025 1.58540476 1.69203068 -0.05639687 5.69236447 5.28701987 0.01548739 5.70111406 1.69403020 3.52781363 5.65517671 5.31730588 3.55057818 5.66687221 1.80727475 1.83857255 -0.30562825 5.39916675 1.85411338 -0.33850094 1.79849678 5.37690922 -0.32474828 5.43734869 5.26021605 -0.29348311 1.73322545 1.73263132 3.84213223 5.30956761 1.75602027 3.83964415 1.68249038 5.44072265 3.81137163 5.25112913 5.44919755 3.79769577
0.05600728 0.03879192 -0.02009559 3.58128687 -0.03394176 -0.04132977 -0.02811756 3.52266836 -0.04970686 3.56820420 3.51415343 -0.01996013 0.02718634 -0.01688264 3.54963585 3.58215474 0.01542071 3.51527749 0.02716090 3.47046648 3.57660335 3.52552997 3.56577860 3.49595916 -0.04257068 1.77363648 1.74365450 3.50894282 1.76386192 1.74291356 -0.03863772 5.35877909 1.80330178 3.48181197 5.31125932 1.78176245 0.02509962 1.82588037 5.35256465 3.55749339 1.78581903 5.31425266 0.02154516 5.32250150 5.37793351 3.55334741 5.29996102 5.40625476 1.78234373 -0.00780316 1.78871220 5.29110418 0.03801820 1.83230495 1.80897692 3.54260663 1.79571604 5.34645103 3.53972934 1.79400636 1.79146798 -0.01381849 5.33747665 5.28909686 0.00857758 5.34683186 1.82384744 3.52108339 5.36587985 5.30488501 3.52763782 5.36118704 1.76739362 1.78427091 -0.01756841 5.32458650 1.76634811 -0.00488052 1.71669001 5.33657025 -0.04301939 5.35988250 5.29285288 -0.04815964 1.75461321 1.73944040 3.53695460 5.31999371 1.75741434 3.55724836 1.74660650 5.33512717 3.52136145 5.30096630 5.33987177 3.55423589 0.34328139 0.16373508 -0.09717944 3.86778581 -0.06834989 -0.09164723 0.25854880 3.59252336 -0.11480213 3.85532868 3.57348220 -0.06621861 -0.24783161 -0.06656528 3.68393513 3.30453594 -0.03917339 3.54274695 -0.26346030 3.42809459 3.64191176 3.24692473 3.50691236 3.61085020 0.23750414 1.87444819 1.72207171 3.76775474 1.87874844 1.67807010 0.24416488 5.38253439 1.70087045 3.74487772 5.32620270 1.68290073 -0.25456689 1.84952880 5.39542185 3.30098331 1.75229754 5.45109154 -0.22428469 5.32050609 5.50762733 3.25408019 5.26135562 5.51015493 2.03906266 0.07846678 1.72473928 5.54814277 0.00960774 1.73122800 2.07434184 3.56529596 1.66657098 5.62519475 3.60223054 1.71211973 1.54832047 -0.05849425 5.46422497 5.00578862 -0.04196636 5.43911056 1.54915364 3.52796546 5.46999548 5.02075578 3.51044295 5.44465411 2.04592853 1.84483559 -0.14562050 5.57676080 1.81046592 -0.19701176 2.01396847 5.39244561 -0.14069281 5.62352876 5.28132010 -0.17527757 1.49036572 1.66418413 3.60766892 5.02758127 1.72547565 3.67631380 1.50309857 5.21562613 3.61519814 5.01663300 5.23488088 3.66304319
0.01483089 0.00272475 -0.07361043 3.56619279 -0.02131615 -0.00218281 0.01097063 3.54957607 0.02260779 3.57213024 3.56074173 0.00227997 0.04549300 -0.04295255 3.55761337 3.50082838 -0.04751134 3.49392052 -0.00605202 3.52617937 3.51149128 3.57381327 3.55029610 3.50831595 0.02245201 1.79012461 1.80797778 3.55499161 1.75089483 1.80710458 0.03323858 5.30454554 1.81894757 3.55183437 5.26985909 1.80462436 0.01420150 1.72546746 5.39648815 3.60498170 1.82126232 5.33595116 0.06162486 5.32033623 5.32655277 3.54355202 5.31894400 5.36808407 1.73643559 -0.03168703 1.79593489 5.32951571 -0.02636509 1.81321244 1.77704651 3.52544823 1.81493257 5.28260956 3.58141298 1.78516759 1.78077624 -0.02880284 5.39836442 5.27923459 0.04549952 5.32562876 1.78356190 3.57176058 5.34071878 5.32901933 3.55581702 5.31414054 1.78577536 1.76294106 0.01236099 5.33149820 1.78186394 -0.01569217 1.85963846 5.35142770 -0.01613045 5.30944331 5.34855191 -0.04023715 1.77228616 1.82660585 3.50562527 5.33049118 1.80894573 3.45096769 1.77978869 5.37256365 3.56615724 5.34785829 5.36942864 3.54228243 0.01877436 -0.21331109 0.11877039 3.59813832 -0.24051066 0.23182779 0.10080683 3.34077615 0.19264357 3.60813953 3.32302769 0.14787614 -0.00733915 0.20502891 3.42477234 3.43976282 0.15377393 3.28119992 -0.02504054 3.74764620 3.29358469 3.45909906 3.74786495 3.28397606 0.12919544 1.57634719 1.98532224 3.58930409 1.53666334 2.03875453 0.06314557 5.11038266 2.01511504 3.52539667 5.01717463 2.00061726 0.03581594 1.92442627 5.17196455 3.59656005 2.02218934 5.12636886 0.07334370 5.51197543 5.08413815 3.53742954 5.47310465 5.10271270 1.74509768 -0.22081381 2.03960126 5.35192183 -0.20130126 2.03389478 1.80360197 3.32528733 2.02747863 5.32422167 3.36821583 1.99185398 1.74846565 0.18055516 5.19623325 5.24956565 0.24497996 5.12790794 1.78053928 3.75191896 5.08818630 5.28696506 3.74903914 5.10329535 1.73524724 1.58926114 0.23815428 5.35972450 1.55700721 0.20816914 1.81391958 5.12228056 0.19172863 5.30102174 5.13828686 0.15301432 1.76631552 2.09165535 3.35153239 5.28889938 2.03485928 3.26672762 1.74067767 5.54024152 3.31928435 5.31771552 5.58660064 3.32287466
0.00271491 -0.03585790 -0.07331338 3.58804492 -0.00953156 -0.03893407 -0.02706770 3.58175730 -0.03938858 3.58017951 3.54998536 -0.02087495 -0.02358332 0.01045054 3.48058397 3.52645626 0.04142518 3.48169970 0.05125845 3.56110383 3.48579379 3.55559827 3.50530389 3.53333713 0.06007768 1.73090608 1.81199024 3.54775490 1.74332577 1.83048209 -0.03947497 5.35941509 1.81300393 3.58488283 5.30068662 1.75856058 0.01069794 1.78346045 5.30826296 3.54244023 1.79886842 5.37409294 -0.02291171 5.34838017 5.33510155 3.56572907 5.32662479 5.34511634 1.73956600 -0.03277658 1.82353616 5.31903085 0.01229596 1.81482919 1.80420966 3.53669108 1.77756998 5.33386714 3.56440540 1.79858127 1.78984667 -0.01027619 5.38943414 5.29670419 -0.00339766 5.36127025 1.76425097 3.53218132 5.34330009 5.33412241 3.55456016 5.41352428 1.78794019 1.79196301 -0.02293883 5.30508284 1.75134242 0.00657184 1.81673255 5.33058382 -0.05575018 5.33689846 5.34046586 -0.07799446 1.79306243 1.81626799 3.54020769 5.33759880 1.77377567 3.57211108 1.75505688 5.30917090 3.54545870 5.35294023 5.33314664 3.51999605 0.22527948 -0.05068111 0.09937574 3.85594238 -0.03452951 0.11029411 0.21257317 3.59033362 0.16502458 3.79945554 3.60461352 0.17194824 -0.24186840 0.05683822 3.26037828 3.23968575 0.02828218 3.35604693 -0.15910646 3.63697223 3.27718212 3.39217195 3.51747662 3.30131919 0.26840903 1.69335059 1.99278322 3.72696543 1.67354800 2.05438857 0.16923902 5.40565767 2.03480767 3.82098011 5.27631490 1.97331746 -0.21428464 1.79736308 5.09999890 3.33393469 1.78202493 5.16681160 -0.23538845 5.36527859 5.15296344 3.36003327 5.28743222 5.12584230 1.94101275 0.01341613 2.04523227 5.53476519 -0.05373817 1.98086084 2.01574877 3.48504263 2.00961778 5.54960822 3.52504247 2.01665829 1.60403540 -0.09433970 5.15681311 5.06400434 -0.03745450 5.15466507 1.52906027 3.51666234 5.15679999 5.12763705 3.58242881 5.21885639 2.02738454 1.73362968 0.14199548 5.48012821 1.76900906 0.24444661 2.03536785 5.32757217 0.13836197 5.53034239 5.43653826 0.16046527 1.57590403 1.81493230 3.34619436 5.11444010 1.74183218 3.40111556 1.58984625 5.38293498 3.30159723 5.18651188 5.33674962 3.28461513
-0.01595690 0.01307692 -0.03276676 3.56653294 0.00389550 -0.08324987 0.07897110 3.56580207 -0.00217664 3.54461212 3.53647958 -0.02585429 -0.00804968 -0.00263709 3.49537218 3.54601866 -0.00805372 3.58290216 0.00617810 3.54669210 3.44694299 3.50098447 3.57016683 3.56380672 0.01388644 1.78873460 1.78777731 3.54446048 1.81914421 1.77962705 -0.01172507 5.29969737 1.78107745 3.50533577 5.36523620 1.81297768 -0.00571170 1.75804433 5.38232702 3.52934467 1.76186391 5.31955212 0.01160943 5.31113745 5.35782943 3.52619417 5.35393911 5.35373199 1.75597602 -0.02717817 1.77900556 5.35221427 -0.00592962 1.75836153 1.74911877 3.54039045 1.74525546 5.31122174 3.56945207 1.82704816 1.77477676 -0.01017310 5.38896248 5.34227065 -0.00421271 5.29454210 1.76474607 3.59593041 5.34955880 5.30662556 3.59116468 5.38355408 1.76682350 1.79710066 -0.05730048 5.33362442 1.75726520 -0.03024713 1.77903666 5.28180673 -0.04395406 5.30753764 5.32011573 -0.03845927 1.78446451 1.78071581 3.50469166 5.30192818 1.83184980 3.51497517 1.77510915 5.27444998 3.50841146 5.28383703 5.28404354 3.50581117 -0.01412466 -0.00310651 0.26876856 3.55525172 0.00862778 0.20952796 0.07092574 3.57023067 0.27832460 3.53921301 3.53132078 0.28852232 -0.00994988 0.00055785 3.21584820 3.54681456 0.07535672 3.31340100 -0.01451804 3.63547900 3.14497455 3.51715681 3.57841170 3.25270453 0.07886835 1.81694782 2.09325364 3.52704326 1.80212153 2.06377668 0.07431806 5.26313726 2.04485301 3.50291614 5.36351961 2.09522707 -0.04715388 1.77296497 5.07613405 3.53786176 1.75032414 5.00903272 0.00933971 5.30848442 5.05160699 3.48465451 5.34016358 5.06265928 1.76559276 -0.03287886 2.06266554 5.28880834 0.00912710 2.05452935 1.75159948 3.55166930 2.05951639 5.33497462 3.63872643 2.11094618 1.70805566 -0.05530242 5.09708699 5.33720481 -0.00228986 4.97250338 1.78178917 3.58545647 5.05997585 5.30845313 3.58744361 5.10156081 1.76792111 1.80101927 0.23590601 5.38146344 1.67984565 0.23197961 1.79327701 5.26004246 0.27208697 5.29497310 5.30953960 0.26115989 1.82474117 1.74803777 3.21397947 5.31278308 1.88077047 3.21706348 1.77219537 5.26835473 3.20792828 5.27164881 5.28837679 3.20603330
0.04211036 -0.02425698 -0.04453306 3.51074060 0.03595634 -0.02783928 0.00119043 3.62744808 -0.03805265 3.50583729 3.56046190 -0.04412395 -0.07103159 0.04274729 3.48519940 3.51179954 -0.01308182 3.50837262 -0.00991570 3.57299352 3.49715985 3.52598149 3.56734343 3.51166215 0.02940662 1.81575177 1.86101726 3.57367305 1.77384267 1.79804015 -0.03575840 5.30488593 1.79714062 3.54589420 5.35859360 1.80236310 0.03190785 1.75981998 5.33274382 3.54514920 1.81068812 5.36988016 0.00120704 5.28557986 5.37703554 3.54002963 5.36039955 5.39088120 1.75947475 -0.01714115 1.80627733 5.32204894 -0.00636783 1.84113313 1.83728115 3.56417792 1.82420896 5.34908797 3.55772422 1.80990428 1.80434718 0.06216151 5.39951328 5.40328185 0.03148741 5.37611052 1.75672781 3.55547688 5.31569884 5.34684430 3.53210140 5.32008841 1.79020623 1.73270703 -0.04015362 5.34696654 1.76460790 -0.00938702 1.78324953 5.30941690 -0.04984578 5.32949508 5.32758971 -0.05888748 1.79565050 1.79518381 3.52261441 5.34687305 1.76442067 3.51769739 1.80501887 5.36060215 3.48538236 5.38726234 5.34105246 3.54586733 -0.14790546 0.16555033 0.12266663 3.38476811 0.19139208 0.18761859 -0.18794033 3.83137297 0.12554339 3.33542821 3.64417419 0.19128229 0.03451178 -0.12260917 3.28364127 3.58381309 -0.13184666 3.24376048 0.13996914 3.47039140 3.28308087 3.63595444 3.40336578 3.31518673 -0.08757498 1.99337058 2.07869916 3.44057083 1.94267093 2.02710495 -0.16368998 5.52647111 1.98355779 3.37303180 5.47099749 2.03969472 0.14587063 1.55759308 5.17472494 3.60321742 1.69785825 5.10792304 0.15732900 5.09462135 5.17991139 3.65701777 5.20224014 5.14500339 1.66571745 0.16764123 1.99694383 5.22200157 0.07740524 2.09398708 1.76656962 3.78895434 1.99862092 5.22430512 3.74404856 2.03638815 1.96322311 -0.05888414 5.14783462 5.57150250 -0.09942915 5.14082805 1.87512119 3.38383371 5.10933394 5.54089715 3.43812039 5.12881947 1.72851935 1.86267335 0.24449578 5.19989007 1.95466164 0.16601824 1.65154043 5.45388969 0.14976682 5.20993830 5.50377943 0.16172927 1.91347965 1.65393043 3.31300697 5.43576866 1.65452284 3.27017368 1.87059293 5.15660203 3.25568399 5.54830887 5.20104110 3.35659874
-0.00950642 0.06231455 -0.04697479 3.54239524 -0.03674359 -0.08840711 -0.02750538 3.57980277 -0.01916938 3.55986817 3.55329433 -0.03956702 0.04320248 -0.00420756 3.47924918 3.51983137 -0.00927761 3.53313485 0.00796323 3.52362247 3.51743933 3.54052925 3.56407967 3.49119448 -0.01194612 1.70355069 1.82384760 3.56826015 1.82915627 1.77952590 0.04670718 5.33068892 1.84192624 3.54333164 5.37638391 1.81146357 -0.05550886 1.82056994 5.32339626 3.57267498 1.74346518 5.34004351 0.03844714 5.25271664 5.35584176 3.54078467 5.28737285 5.42204291 1.76088732 0.02021673 1.82076965 5.38472118 -0.03433413 1.77540023 1.75797922 3.55866104 1.83189623 5.29789502 3.51210606 1.88131488 1.78215299 0.03317886 5.35041027 5.32721581 0.01972216 5.32604208 1.74943497 3.55253263 5.40823572 5.33453175 3.58084699 5.32244520 1.77155547 1.79711115 -0.02555022 5.31070574 1.79694008 -0.05356258 1.76675964 5.32721064 -0.02047920 5.32935040 5.28455541 -0.03628848 1.77994509 1.75147084 3.56816706 5.37100383 1.76365876 3.55694657 1.82015249 5.31859933 3.53684256 5.31942035 5.33981479 3.56376773 0.07459543 0.01411729 -0.34504006 3.67963323 -0.19699075 -0.32019382 -0.07471625 3.55237195 -0.32780854 3.69822836 3.42497039 -0.28982285 -0.04314438 0.14121837 3.74313106 3.36602435 0.18747948 3.72252455 -0.06889611 3.60984677 3.80881084 3.45043654 3.76153762 3.71731894 0.01287241 1.47438531 1.61146460 3.61567289 1.71739666 1.49056009 0.22500609 5.23154605 1.60397882 3.60434318 5.26514149 1.52486046 -0.07611428 1.91122072 5.62272261 3.45901067 1.94129036 5.55495025 -0.01262118 5.35941058 5.64609542 3.53205220 5.47868317 5.67016049 1.79656312 -0.09332531 1.53081298 5.41979841 -0.14141791 1.48292448 1.81251687 3.44127583 1.54644086 5.23598807 3.38569804 1.60126523 1.62915321 0.14451883 5.60027611 5.28577142 -0.01152720 5.63514597 1.65400872 3.74228073 5.63873209 5.35956119 3.76024366 5.57823624 1.78917904 1.63319961 -0.29212380 5.33870115 1.67088814 -0.33916095 1.88406787 5.16761207 -0.26339268 5.24701255 5.13437862 -0.29878717 1.64933067 1.79134377 3.85028241 5.38703791 1.82470860 3.86395542 1.79031809 5.44203008 3.82339805 5.37198491 5.37514136 3.87073327