-267.71459807
-267.72272930
-267.60884758
-267.56498114
-267.50231693
-267.55997148
-267.66648347
-267.68658806
-267.61609916
-267.62945805
-267.68388784
-267.66689719
-267.55769367
-267.37385375
-267.41072665
-267.24540521
-267.49030813
-267.31118674
-267.36824468
-267.64564316
-267.47908360
-267.55166820
-267.59516078
-267.50648414
-267.65793817
-267.52445019
-267.48219539
-267.42316996
-267.45764147
-267.49281783
-267.68742552
-267.50797359
-267.61897773
-267.60044053
-267.25093524
-267.53521124
-267.37527231
-267.47803020
-267.57926748
-267.43476888
-267.59346576
-267.56352431
-267.32995127
-267.45706409
-267.66548388
-267.60235538
-267.64238768
-267.51882304
-267.55652487
-267.44018973
-267.37771672
-267.54083518
-267.57818974
-267.49439976
-267.69828267
-267.71741605
-267.45086462
-267.64541515
-267.64365084
-267.64037859
