-0.42477299 -0.15498369 0.26605899 -0.39133011 -0.05554651 0.24096117 -0.06745492 -0.17584658 -0.52549611 -0.11415350 0.11719662 -0.09205843 0.60500926 0.43276537 0.02808368 -0.00580482 -0.20760518 0.23034889 0.15725673 -0.07088194 0.12509375 -0.26141013 0.27900769 0.11314344 -0.30556100 -0.03133934 -0.36876855 -0.33625946 0.07118021 -0.30586454 -0.21749589 0.38138657 0.08845799 0.05085448 -0.21546524 -0.03633574 -0.04977496 -0.05276393 0.28812657 0.05085048 0.06389013 0.14423336 -0.25033599 -0.04417387 0.35365790 -0.20483693 -0.31835975 0.04991081 -0.13187066 0.13513781 0.07982557 0.16552150 0.24126408 -0.24868531 0.43622014 -0.12532366 0.17372008 -0.15877136 0.32386648 -0.57252291 -0.02306427 0.21149792 -0.44763956 -0.05586010 0.21178599 0.33385469 0.25003742 0.19329463 0.27236548 0.17671109 -0.07053040 -0.07263306 0.16627668 0.07555530 -0.21465211 0.22129327 0.14516795 -0.11958459 0.02575242 -0.36659915 0.29137469 0.37113090 0.07721828 -0.20936032 -0.12641212 -0.29756050 -0.01480044 0.40478935 -0.37815061 0.53481223 0.36728568 0.10213747 -0.03577607 -0.32382019 -0.49722212 -0.34985153 0.02047455 0.00081359 -0.00802260 -0.04253025 -0.00754566 -0.00723656 0.01662235 -0.00149407 0.06734818 0.02447786 -0.00863119 -0.01458537 -0.00791560 -0.00899188 0.06178157 0.00353703 -0.00224310 0.00976536 -0.00017930 0.02427312 0.03609828 -0.03691577 -0.03699354 0.05029823 -0.00307716 -0.00648201 -0.06664713 -0.01073630 0.02261373 0.01423701 -0.01098191 0.01154294 -0.04498090 0.00350449 -0.01171450 -0.06603389 -0.00875272 -0.00331060 -0.04624959 0.01484639 0.03350012 -0.00703147 -0.01593354 0.00725863 0.06538255 0.00163620 -0.00171501 -0.03251797 0.00727125 0.01335149 -0.04511984 0.02146930 -0.02323050 -0.01985947 0.00456448 0.00429740 0.01545865 -0.00658489 0.01780763 -0.06616336 0.00530845 0.03236474 0.00457057 0.00096978 -0.00888771 -0.02733537 0.00773568 -0.00885612 0.03223991 0.00829824 -0.01100153 -0.01743530 -0.03827301 -0.03140272 -0.00670052 0.00334243 0.03223658 -0.02015607 0.01188701 0.01885320 -0.03630295 -0.02122327 -0.01050103 0.06334362 0.02203905 -0.01272787 0.06518548 -0.00845887 -0.01627761 0.04234156 0.02813607 0.01738270 0.03903954 -0.02718758 0.01909833 -0.00619652
-0.12969319 0.13670103 0.08851734 -0.07282893 0.00136466 -0.08557527 -0.16887544 0.14805446 0.17404016 -0.01384247 -0.11334677 -0.16329335 -0.18622830 0.20749269 0.04044101 0.14648258 0.14649293 0.02706671 0.01129452 -0.04855548 -0.35389259 0.08581274 -0.65432433 -0.36019783 -0.29994991 -0.01141754 0.03281724 -0.18911666 0.15592434 0.07463043 -0.10255892 -0.35400274 0.12320430 -0.06322573 -0.04855937 -0.27441187 -0.42021899 0.02826429 -0.43369979 0.18514276 0.37033747 -0.17386477 -0.06448988 0.11208901 0.19987350 -0.31962955 0.17863361 0.05436071 0.43819599 -0.03136304 -0.39480408 -0.01973794 -0.25327734 0.00499774 -0.01000389 0.05295721 0.31318736 -0.07277653 -0.04945808 0.25854669 0.02857021 0.31214758 -0.12538581 0.04973671 0.02436899 0.22530510 0.21823790 -0.09017610 -0.27909689 -0.04627228 -0.91552508 -0.61319852 0.32286644 -0.74887406 0.12363870 0.12490571 0.12228774 -0.11795453 0.21631116 -0.25492912 0.52235163 0.08068892 0.56644074 0.50663667 0.12676813 0.36438510 0.41565996 -0.10704200 0.20049949 0.48161439 0.03951150 0.24381745 -0.07883448 0.21196536 0.20155029 -0.21267987 0.01029011 -0.02550899 -0.06130613 0.00083440 0.00770477 0.02294994 0.03384327 -0.02311912 -0.00337907 -0.00049653 -0.00086202 0.01019558 0.00212068 -0.00062438 -0.03067415 0.02171215 0.00750257 -0.03430728 -0.02425201 -0.00278245 -0.06949927 -0.00337096 0.01302973 -0.06833755 -0.00618631 0.02323325 -0.00777199 0.01139796 0.02182619 0.02889167 0.00474237 0.00516421 -0.01927279 0.01749342 -0.02186157 -0.02255469 0.01021803 0.00082171 -0.01031544 -0.01081442 -0.00799764 -0.05212940 -0.01250253 0.00394364 0.02431455 -0.01500737 -0.00866921 0.05842580 0.00243766 0.00550579 -0.03374632 -0.03884899 0.00252314 -0.02572535 -0.03412041 0.02457638 -0.01336784 0.00506882 0.01619717 0.03474496 -0.03776909 0.00774415 0.06523047 0.00823714 -0.00503390 -0.03239725 0.01991975 -0.01008209 0.06257099 0.03568979 -0.03323415 0.10277842 0.01802101 -0.03721724 -0.06097287 0.01552719 -0.01889485 0.04970962 -0.04373269 0.01657210 -0.06505020 -0.05352942 -0.00732552 -0.04140172 0.01965916 0.00810501 0.03335638 -0.01991781 0.01580135 -0.05315998 -0.03318565 -0.00979455 0.06741668 0.01534901 0.00621454 0.04276587
-0.34527247 -0.30491713 0.90850675 -0.02502135 -0.08512618 0.01775660 -0.01684740 -0.35617717 -0.04511266 -0.18039337 0.14687651 -0.13641784 -0.45477245 0.48200899 0.20462559 0.03164663 0.09379968 0.51501998 -0.10405830 -0.24872215 0.39235521 -0.05783483 0.23572839 0.48665620 -0.08203489 -0.47855363 0.23401035 0.14124297 -0.34842030 0.07961362 -0.17604412 -0.29882989 -0.85857867 -0.13349278 0.08356346 -0.17030877 -0.42755794 0.42260727 -0.44158205 0.21808732 -0.12745593 -0.29230487 -0.23943588 -0.20594325 -0.33439695 -0.51538688 0.02888987 -0.31330090 0.13576884 0.19509548 -0.45578825 0.12294658 0.43901528 0.02582038 -0.29785265 0.43820895 -0.16725568 0.15982212 0.26135812 0.41935872 0.58334425 -0.07485213 -0.03897370 0.03737725 0.34878332 -0.13739867 0.19632209 -0.08986506 -0.33819160 0.20116548 -0.12727464 -0.18479120 0.09132706 -0.01515293 -0.27462137 0.10428941 -0.35895490 -0.18480102 0.46722785 0.46446734 0.06893262 -0.11169262 0.21819425 -0.10655372 -0.08610927 -0.09967205 -0.20406367 0.08486656 -0.43935387 0.16448053 0.74096783 -0.12918542 0.74982484 -0.06259501 -0.07014031 0.41748023 -0.02184535 0.00889574 -0.04257682 0.01031287 -0.00792942 0.02967223 -0.07361521 0.05301369 0.00550267 -0.00840970 0.00087881 -0.02032737 0.02630793 0.02621701 0.03927144 -0.02987311 -0.00168427 -0.03321230 -0.00988798 -0.05588422 -0.01023896 -0.00235058 0.00613568 0.02510906 -0.00929352 -0.03403495 0.03208086 0.01356592 0.03936950 -0.00410807 0.02171078 0.02216875 -0.03390641 -0.01733634 -0.00267798 0.00989925 -0.02720069 -0.02047020 -0.02978851 0.05419987 0.01841444 0.01452768 0.05060086 -0.01306506 0.00799942 -0.02971809 0.01790816 -0.02626570 -0.03048771 0.02305738 -0.02740454 0.00840472 0.01253848 -0.01967753 -0.04485155 0.03974343 -0.02908333 -0.01452684 0.00927340 -0.02581904 -0.01751617 0.02538229 0.00676781 0.00650885 -0.03821954 -0.03082514 0.02583755 -0.03651162 -0.03293614 0.02402962 -0.01698904 0.03712289 -0.04396197 0.02364136 0.01686517 0.01913596 0.00139610 -0.05256587 0.03014099 0.00006203 0.00460232 -0.03498304 -0.01679174 -0.03614692 0.00610272 -0.02959050 0.05967421 0.01322258 0.02527681 0.04095714 0.04701046 -0.06596898 0.02738222 0.03293116 -0.03743897 0.04212258
-0.20961057 -0.10866716 0.10844320 0.47948474 -0.29124956 -0.11952218 0.12870399 -0.27150436 -0.04257908 -0.25473210 -0.77460769 -0.33883724 0.23315307 0.01637184 0.06292711 -0.03058137 0.53608045 0.16433354 0.28090344 0.41325367 0.05056800 0.62711268 -0.26629948 0.19347801 0.06497234 -0.13558985 -0.39570021 -0.23294070 0.11052890 0.36457217 0.10357590 -0.31548341 0.27936810 -0.16259329 0.13250153 -0.10138547 -0.10953507 0.25690489 0.08278809 0.10783124 0.24651566 -0.30511157 -0.25806607 -0.25289361 -0.24019670 -0.12206289 0.15612624 -0.17562111 -0.33712853 0.00328973 0.45428727 0.25026760 -0.26930728 -0.08372153 -0.36699194 0.20469030 -0.80488699 -0.16340623 -0.03313460 0.25348416 0.04673198 -0.22528167 -0.55346829 -0.00387207 -0.19775181 0.47594922 0.06450122 -0.11042206 0.63920131 0.07018258 -0.07363730 -0.19998463 0.03979557 0.53070787 0.56337144 0.06927114 0.21699066 -0.07035146 -0.57859338 -0.14133684 0.07868728 0.68697842 0.58957045 0.09042409 0.13806404 -0.49878615 0.10413297 -0.28031110 -0.12049731 -0.08464442 -0.54706582 0.48728068 -0.14166955 0.26596117 0.18563729 -0.30833555 -0.00574058 -0.01166865 -0.03474827 0.04111889 -0.05074478 -0.02965490 -0.01079505 0.02451994 0.05455053 -0.02727178 0.03197337 -0.01266331 -0.00644897 -0.01068363 -0.05321024 0.01587809 0.00511833 0.03344121 0.02344539 -0.03565768 -0.00939986 -0.06020133 0.06418249 0.07802851 0.01307289 -0.03309838 -0.01379007 0.00235613 0.01070999 -0.03020746 -0.01893984 0.02424638 0.07055839 0.03534410 0.01623055 -0.02300121 0.01222464 -0.01800565 0.02118528 0.02820744 0.00653045 -0.03891566 0.02253407 0.03708431 0.03213415 -0.03443249 0.02908832 0.09813199 0.02435475 0.00273566 0.04541445 -0.01785470 0.01549141 -0.01586428 0.00049204 -0.03019356 0.00689736 0.01495840 -0.00284571 -0.03207263 -0.07366361 0.00178193 0.03647564 0.00270372 -0.00334727 -0.05124494 0.00888245 -0.00393226 -0.05806532 0.02570819 -0.00572166 -0.02915499 -0.01212331 -0.02226782 -0.06785385 0.01236507 0.01690896 0.00604054 -0.01593265 0.00611700 -0.02758620 0.01906921 -0.03361995 -0.01345880 0.00151651 -0.02455778 -0.01643311 -0.01314123 0.03398762 0.04126511 0.03360581 0.02780043 0.01232138 -0.00194642 -0.00456353 0.02031785
-0.08250260 0.20245222 -0.46896360 0.48583079 -0.50806654 0.02483961 -0.37362011 0.31315478 0.72145113 -0.44072765 0.02904430 0.02765606 -0.01459635 -0.07286632 0.33499716 0.19927025 0.29795061 -0.14426770 -0.41945406 0.29919622 0.09993768 0.16625870 0.04310043 0.36257193 0.04683720 -0.08994391 -0.11657076 0.17077917 -0.73619741 0.63234715 -0.12960636 -0.23767332 0.12671717 0.72416960 0.06691889 -0.06828837 -0.28947670 -0.75309242 -0.68670144 -0.16951346 0.36985219 -0.58754097 -0.20469474 0.07692231 -0.08712183 0.29315222 0.32208178 0.25788392 0.02892777 0.55732636 0.42536552 -0.14074473 -0.13005842 0.03195926 -0.20440880 0.41002927 -0.04602938 0.36853450 0.16480362 0.19158127 -0.62887241 0.24149984 -0.14700316 -0.06778315 0.20185234 0.01710984 0.19155041 -0.36383861 -0.27069382 0.39349714 0.36179025 -0.76011361 0.07818931 0.20790984 -0.24507749 0.65894454 -0.25845543 0.13385155 0.03931376 -0.19752565 -0.14104936 -0.22299180 -0.00141669 -0.38752897 0.05131595 -0.28574977 -0.21779201 -0.37572808 -0.02586865 0.62815399 -0.08176823 -0.45892465 0.29336487 -0.05008206 -0.04620743 0.06495434 -0.02003310 -0.02026013 0.01236457 0.06881574 -0.02258968 0.02508554 0.05379946 -0.00105839 -0.01589060 0.07422914 -0.02034739 0.02283480 0.02119511 0.02865624 0.02141682 -0.00705757 0.00214510 -0.02406992 -0.05154213 0.02076184 0.00028908 -0.03118567 -0.03237486 0.02244521 0.00312068 -0.03946821 0.03912242 -0.01360149 0.00444357 -0.00774588 0.02687827 0.03531018 -0.02014720 0.02207210 -0.02818649 0.02017200 -0.01530154 0.03477054 -0.03222791 -0.02815774 -0.04497575 -0.01208361 0.04195521 -0.00618335 -0.01194795 0.05447392 0.03180437 0.00251651 0.05845140 0.00052975 0.00154394 -0.05590095 0.01637587 -0.00477490 0.09667942 0.01927560 0.05115651 0.03829704 -0.03655700 0.04476979 0.02498577 -0.01546917 -0.00070658 0.07585754 -0.00802344 0.03239746 -0.04013793 -0.00932958 -0.04223385 -0.03244371 -0.04525502 -0.02513145 0.08358562 0.01826506 -0.02217089 0.05421436 0.02079680 -0.00024063 0.10016797 -0.02482988 0.02189244 -0.00822232 0.00543858 -0.04788912 0.02146965 -0.00258572 0.01294481 -0.02494300 0.00460005 -0.01849056 -0.05509922 -0.00405375 0.04825068 0.01017367 -0.01546954 -0.00984802
0.03172661 -0.31291809 -0.18579075 0.19238458 0.01417304 0.18478292 0.59511393 -0.14103643 0.50987853 0.29584983 -0.00460731 -0.34900497 0.56547112 0.12250194 -0.12798569 0.04982682 -0.07252861 -0.27985733 -0.55787731 -0.34769957 0.01472234 -0.07301518 -0.25553795 -0.02142039 0.32422089 -0.00032397 0.25128091 -0.12374353 0.08796837 0.54753198 -0.12480282 0.44457642 -0.79993725 0.26706016 0.34233184 0.18112541 0.98147722 0.01401998 -0.21392688 -0.30906899 -0.14551444 0.25079203 -0.38994397 0.37299611 -0.04879368 0.43171499 -0.34984795 -0.10670213 -0.08489640 -0.09218944 -0.49133293 -0.33492244 -0.29361445 -0.32404613 0.18986393 -0.29208379 -0.21491391 0.11476930 0.18023933 -0.20838413 -0.32731302 0.62328296 -0.06625424 -0.14914309 -0.68830583 0.45446779 -0.10316795 -0.16518797 0.09673919 -0.67155657 0.58385391 -0.13812522 -0.03354488 -0.35458887 -0.15651038 -0.59495838 -0.24012998 0.05827191 -0.25465550 0.12574812 0.50488898 -0.02949688 0.25532521 -0.21342161 0.06839403 0.22186741 0.47104369 -0.06667566 0.29307419 -0.21868550 0.49643645 0.25128418 -0.03919574 -0.37552727 -0.17712834 0.67876322 -0.07000842 -0.00285307 0.02478630 -0.01240129 -0.00875049 0.00262949 0.04673267 0.01461532 -0.07553278 0.01170988 0.03089590 -0.02936140 -0.03480001 0.02555532 0.01621189 -0.02522876 0.00885963 0.00353268 0.00258892 -0.01786704 0.02073587 0.05632722 0.01322320 0.00604121 0.05189099 -0.00639938 -0.02653198 -0.01313426 0.01098227 -0.04902058 0.05513537 0.06291682 -0.07711019 0.00815383 0.00499417 0.00845125 -0.06493369 -0.01720334 0.07538022 0.01274183 0.00920690 -0.01182430 -0.01891560 0.01529073 0.02947139 0.03668735 -0.00754691 -0.01152569 0.00893332 0.01735542 0.01016954 0.03472430 0.00148007 -0.00699586 0.00566865 -0.01255134 0.01051586 0.02715881 0.01126794 -0.00044630 -0.02451932 0.01587961 -0.03710428 0.00788444 0.00296627 -0.00930535 -0.04625219 -0.02620593 0.02159584 -0.02933253 0.04596161 -0.02162762 -0.00425370 -0.00678457 0.03433795 0.05114790 0.00532709 0.01741924 -0.02176235 -0.00241583 -0.00983625 -0.02404124 -0.01867777 0.03792643 -0.03036515 -0.01585575 0.01074799 -0.08138946 -0.04807461 0.03731473 -0.08371752 -0.02972221 0.01520090 -0.07724068 -0.03284757 0.00788860
-0.00725332 -0.19849705 -0.30974922 -0.01767013 -0.13505379 0.36924321 0.27866035 0.08831112 0.42568976 0.05044919 -0.05282811 -0.11916378 0.10917407 -0.04355881 0.12473503 -0.18901064 0.09458146 0.31140796 0.13748984 0.38559164 0.18978042 0.52610703 0.04384605 0.08137804 0.24894973 0.14066702 0.08563372 -0.09927429 0.50315273 -0.08220050 0.30918258 -0.67066550 0.23898253 -0.00237449 0.13773121 -0.04871358 0.17672762 -0.11350448 -0.06729792 0.02739769 0.11257223 0.32618078 0.30826945 0.55493875 -0.13521782 0.01781142 -0.18093338 -0.15127480 0.53319135 -0.22557626 -0.19628039 -0.15837392 -0.07887154 -0.27404952 -0.17545777 -0.24911838 -0.54843557 -0.14087396 0.12618238 0.08012522 -0.21419953 -0.24739461 -0.43896811 0.19887570 -0.09557386 0.15087327 0.42169023 0.11029207 -0.34926483 -0.62217480 0.07259369 -0.43233995 -0.18317315 0.09525999 -0.03230741 -0.15750927 -0.24758366 -0.42052693 -0.15043382 0.12237874 -0.18710280 -0.18432061 0.08935305 0.04969624 -0.32593095 -0.07616034 0.49200451 -0.10705070 0.06094105 0.37634007 -0.51965105 0.13765499 0.27880321 -0.08924383 -0.26072838 0.21201916 -0.01248812 -0.00494232 -0.01684099 0.01650154 -0.00929426 -0.00289295 0.00815406 0.02125450 0.03986441 -0.04880496 -0.03579326 0.00441254 -0.02949406 -0.02789492 0.03713202 0.01112544 0.09837163 -0.07046998 0.04924486 0.01352683 -0.01396308 -0.00117820 -0.01606774 -0.00048551 -0.01267907 -0.00946956 0.02855669 0.03051144 -0.02984907 -0.01226106 0.00403015 -0.03829381 0.07009089 0.04242818 0.03251802 -0.01445016 0.00850701 0.01681425 -0.05544905 -0.01394782 -0.01566564 0.06556039 -0.01861277 0.01925722 0.01368515 -0.03707505 -0.00147431 -0.01405890 -0.02937676 0.00067049 0.08557905 0.01082443 -0.02176729 0.08298094 0.01385617 0.00573121 -0.03023036 0.01881333 0.02697340 0.04967437 0.01744484 -0.01971308 0.00543513 0.04110323 0.00493004 -0.01475714 0.00300691 0.02068923 -0.05766054 -0.01545941 -0.00367494 0.00156058 -0.00623061 -0.01016537 -0.01068643 0.00093644 0.03127749 -0.02251290 -0.02705496 0.02887621 -0.07084419 0.01288316 -0.01734332 0.03877164 -0.00597714 0.00875060 -0.02869742 -0.02509614 0.01254068 0.01358430 -0.00419439 -0.03451946 -0.04288016 0.00741867 -0.00579877 0.00978684
-0.26322681 0.19986703 -0.03088097 -0.21476986 -0.14652344 0.38273232 0.21567217 -0.35300519 0.17793648 0.23110196 -0.13103401 -0.15352041 0.17298704 0.04076109 -0.05462347 -0.47608668 -0.38871180 0.48400907 -0.30926219 0.43187275 0.25161782 0.04853743 -0.04379989 -0.04951867 -0.13064015 -0.17734313 -0.51663259 0.09854034 0.11316357 0.10111940 -0.09704341 -0.16102899 -0.04656649 0.15257569 0.09540968 0.38151073 -0.11311281 0.01928782 0.36908532 -0.15906744 0.26232155 0.24834779 -0.10152190 0.27029525 0.05718366 0.34228569 0.25151317 -0.20678807 0.29384557 0.03035201 -0.31725587 0.25147525 -0.10030205 -0.64113295 0.02289933 0.08866331 0.28619900 -0.07540292 0.09472615 0.03222594 0.25725447 0.32959685 -0.33662307 -0.02049509 -0.32727861 -0.19878841 0.17324737 -0.00217362 0.01477941 -0.20294752 -0.33906525 -0.39033074 -0.06777105 0.02443004 -0.15606463 -0.05031784 -0.05639282 0.28202428 0.10035384 -0.25267401 0.12389563 -0.05924995 0.20148176 0.03389514 0.36794779 0.26948722 -0.04609437 -0.16545857 0.56175575 -0.00399029 0.24319487 -0.21722571 -0.05393485 -0.46554463 -0.58842645 -0.02381617 0.00917691 -0.01252395 -0.03362523 0.01923175 0.03284581 0.00505159 0.00108713 0.01292938 0.02878371 -0.02482451 -0.03288246 -0.02566204 -0.02859521 0.00391612 -0.05893401 -0.00118071 -0.01365936 -0.00167206 0.00825226 -0.01740950 -0.04037669 0.00490254 0.01025340 0.01176359 0.00403386 -0.03777020 -0.01290652 -0.00342244 0.01514462 -0.04298472 -0.02066638 -0.00400738 0.06434999 0.01885271 -0.01120943 -0.04106047 -0.00262958 0.03689550 0.02342159 0.03651036 -0.03903189 0.01161230 0.02664986 -0.06698953 -0.07107019 -0.03553327 0.02689236 0.04543088 -0.05231714 -0.04326089 -0.01458731 0.04877772 -0.01936269 0.06272283 0.02220668 0.01650617 -0.04737957 -0.00071977 -0.02390523 -0.05897766 0.01983857 0.01913220 -0.05527944 0.01325399 0.00961100 -0.06701641 0.00419103 0.00081217 -0.00355807 -0.02219905 0.02646149 0.00054154 0.02149066 -0.01428866 0.01028301 0.00360543 0.00235822 0.00583188 0.00966123 0.00225609 0.06643455 -0.03944079 0.04040195 0.00593452 -0.02406866 -0.00664163 -0.05451615 -0.00700761 -0.02615497 -0.04923215 0.01708642 -0.05251987 -0.03262991 0.02210683 -0.02847588 0.03096131
-0.54692421 -0.26615750 -0.24577903 -0.21655814 0.15276384 0.12820136 0.29301576 0.32277883 0.17444821 -0.08997887 0.27527386 0.00128993 -0.23919241 0.20142175 -0.22959128 -0.47659483 -0.23944389 -0.11368760 -0.06927578 0.51486043 -0.53018046 0.10352792 -0.10422257 0.08760875 0.28808684 -0.09699984 0.79650326 0.20658296 -0.00523628 0.68642240 0.11915712 -0.31969657 0.14413632 0.48748367 0.19527421 0.13709657 -0.15346742 -0.41987096 -0.03085285 -0.12426234 -0.20326506 0.46179376 -0.20406953 -0.03225196 -0.34546845 -0.11409687 0.01780794 -0.47292123 -0.06266484 -0.04480794 0.30453060 0.24026478 -0.42069405 -0.23637228 -0.56584454 0.09708406 0.09472687 -0.11814081 0.21715355 0.35458387 0.06857147 0.08046246 0.13412643 0.44261138 -0.12657221 0.16286607 -0.24498862 0.30571689 -0.05178027 0.10765016 0.16678077 -0.11849825 0.28751023 -0.11942558 -0.24108304 -0.10656690 -0.11126121 -0.40824631 0.43380785 -0.27932102 0.25856524 -0.14241407 0.28665746 0.30413635 0.24046449 0.12977961 -0.46558201 -0.06520411 0.18251748 -0.45654912 0.20210621 -0.14592848 -0.02182092 0.01940345 -0.21117803 -0.26262289 -0.08023917 -0.06295510 0.01255504 -0.00539092 0.03015445 -0.02219089 -0.06426717 -0.01783355 0.00083815 -0.03679548 -0.01845962 -0.01355926 0.01201090 0.00679921 -0.02652615 -0.00686146 -0.01116125 0.04793839 -0.02165694 0.00370873 0.03003523 0.00373849 0.00774706 -0.00483503 0.00694994 -0.00095172 -0.03573415 0.03290888 -0.01829241 -0.01271719 0.04367903 0.01700507 -0.00936891 0.06912308 0.01552176 -0.01280374 0.02836107 -0.01590890 0.03200852 -0.00069994 0.01261975 -0.02443081 -0.02794220 -0.02013253 -0.00658834 0.09777762 0.00447467 -0.02597018 0.03510413 -0.00924595 -0.01436788 0.04640018 0.02447945 -0.01048283 0.02538756 0.03024508 0.01691194 0.03131022 -0.00789776 -0.02014025 -0.04477367 -0.01083851 -0.00027865 0.01719105 -0.00168322 -0.00179008 0.01515865 -0.03079824 -0.01422624 0.03073581 -0.01038378 -0.00035423 -0.07506862 -0.01823548 0.04791778 -0.06989218 -0.01439292 0.09728956 -0.07108300 -0.03181990 0.02229543 0.00632398 0.00994402 0.00817039 -0.02878150 0.00529654 0.01042256 0.03712720 -0.00344399 -0.04077826 -0.05152447 0.01033718 0.01396823 0.00178150 0.02146793 -0.00992702
-0.31969923 -0.25076720 0.52767074 0.09412641 0.38604946 -0.25724424 -0.04445219 0.08602595 -0.47895275 -0.05546941 -0.17455042 -0.51291582 -0.36613170 0.59666969 -0.33992561 0.33533114 0.50037817 0.24166597 -0.09126156 0.16461647 0.15182034 -0.12497783 -0.02254582 0.20213658 -0.18466984 -0.33739005 -0.09131467 -0.09502550 -0.03053927 -0.02304969 -0.25320579 0.10787900 -0.14115714 -0.03994459 0.46167996 0.20497211 -0.05571619 0.50106847 -0.46065414 -0.42531103 -0.33192914 0.19824203 -0.41227893 -0.08890513 0.54934858 0.23985821 -0.01811551 -0.16899425 0.08238744 0.23671736 0.08357876 0.25241565 0.07213478 -0.01180951 0.02170692 0.32648009 -0.03903813 0.52010801 0.01917949 0.07251402 0.33831768 0.57190566 -0.32694196 0.25077313 -0.09316555 0.08621687 -0.00170687 -0.36563562 0.39803311 0.21680170 -0.06541549 0.46432839 0.08467661 0.11613919 -0.48630702 0.09432961 -0.03485744 -0.07184532 -0.64566675 -0.36091416 0.11917523 0.42897051 -0.07439196 -0.16227648 0.09214574 -0.57879201 0.38368827 0.06660993 -0.46260704 0.55408581 0.07242663 -0.58136454 -0.50774967 -0.07546792 -0.27503738 -0.15730043 0.00805889 0.01322710 0.01965586 -0.02750467 0.04933629 -0.05291071 -0.00253613 -0.06493271 0.06199770 -0.00929238 -0.01096251 0.04267512 0.01721915 0.00303886 -0.04250028 0.01501222 0.00203528 0.00809958 0.00542650 -0.04832161 0.03821951 0.07480660 -0.05942598 0.05591501 -0.02464423 0.01191624 0.00318213 -0.00617132 0.03782617 -0.05599145 0.01003439 -0.04330453 0.02401111 0.03131330 0.09857771 -0.06249559 -0.00847624 0.01498566 0.00536783 -0.01099337 0.04389891 -0.04449387 -0.00883541 -0.01330246 0.02671333 -0.01382566 -0.00768646 0.06167089 -0.00571631 0.01717432 -0.04158802 0.00216197 -0.04497843 0.03246077 -0.00354630 0.01451107 -0.03228246 -0.00367936 0.02498267 -0.03108410 0.01320812 -0.01537910 0.02177860 -0.00397695 0.04800814 -0.03677530 -0.00670230 0.01255161 0.01738810 0.00050702 0.04363736 -0.04176752 0.02831308 -0.03138295 0.02746499 0.00383888 0.02702042 -0.01904851 0.03375765 0.05263464 -0.03915513 0.01544581 -0.02789236 0.03324993 -0.02019108 -0.03512256 -0.01578354 0.00289159 -0.01201746 0.00715284 0.00901434 -0.01524365 0.06064681 -0.00571109 -0.02771929 0.01496474
0.04324004 0.35681515 0.29826649 -0.41038280 0.15347438 0.18787518 0.38333618 -0.22632992 0.20343602 -0.23549759 -0.02364528 -0.15014969 0.17377219 -0.06249616 0.59231254 0.11655319 -0.50837248 0.47308033 -0.44642527 -0.04505257 0.13784283 0.17674716 0.38293032 -0.13588170 -0.40349529 0.36910772 -0.22049864 0.06084713 0.28639027 -0.29661559 0.31259638 -0.25601516 -0.34623453 -0.18063052 0.14851988 0.58360498 -0.10530406 -0.08019079 0.55897585 0.12500965 -0.13597367 -0.03842194 0.25863048 -0.20019878 -0.03077919 -0.08426420 -0.16001111 -0.22632689 0.32048874 0.15435656 -0.29627406 0.04185264 0.05747125 -0.00689405 -0.10101942 0.15654799 0.06638092 0.07494810 -0.32123453 0.21491585 0.00698514 0.18615953 -0.44120037 0.18407407 0.24035591 -0.30299420 0.09426883 0.24627690 0.30639385 -0.03585830 -0.16652476 -0.71288431 -0.19722074 -0.17149785 0.04668210 0.35019927 0.05532264 -0.20381820 -0.37777489 -0.13203747 0.17635503 -0.00393101 -0.00275022 0.51837959 -0.09577776 -0.39951873 -0.22505621 0.01107918 0.13986965 -0.54332478 0.25672436 0.08125701 -0.28528207 -0.31377088 -0.12300568 0.09813487 0.01357134 0.01104702 0.02922925 -0.06807269 0.01705298 0.01188437 -0.02249613 0.00194944 -0.00457549 -0.01792725 -0.03246693 -0.00605511 0.05302091 -0.02914045 0.06356550 0.06333382 0.00134986 -0.03329056 0.03065084 -0.02743660 0.01715174 -0.04852900 0.00619225 -0.02814005 0.03003136 0.00097922 0.03982443 0.00782377 0.02352041 -0.03068473 -0.02896214 -0.02763069 -0.04034808 -0.02368451 0.01613741 -0.01472464 -0.00908640 -0.00619757 -0.00373009 0.01158208 -0.00467545 0.02991254 -0.00081009 0.00497601 -0.02100515 0.00337430 0.01849478 0.01296474 0.01216186 -0.04736278 -0.02262256 0.02094770 0.02541316 0.03426333 -0.00934715 0.02328859 -0.02481250 -0.00763445 0.01487782 -0.00255131 0.00272963 0.04480740 0.04504548 0.05951734 0.01132603 0.04670700 0.02576869 0.01017864 -0.00235383 0.00790596 -0.02143514 0.00277903 0.00622293 0.00862973 0.03067246 0.03218750 -0.01957884 -0.00327607 0.00302609 0.01368186 0.00044789 -0.07746828 -0.08575023 -0.12889101 0.01329052 0.00059547 0.00499696 -0.04558852 0.02086004 -0.05183247 -0.03846740 -0.02792168 -0.00720050 -0.04700186 0.01155685 -0.01133429
0.07197627 -0.22194542 0.01805590 -0.03462128 0.09025851 0.55717741 -0.80542609 -0.13397471 -0.42456962 0.13569955 0.04909671 -0.11680214 0.08283752 -0.02092589 0.05916384 -0.08199610 0.09918337 -0.85769811 -0.08926104 -0.03949111 0.82019568 0.23786684 -0.09244447 -0.57865670 -0.21054951 -0.26016451 0.08884328 0.01099213 -0.40157821 0.22659907 -0.04272202 0.30499944 0.26931817 0.28523381 -0.14096573 -0.09558847 0.01972291 0.40361124 -0.54129774 0.14407352 0.25793994 0.25621699 -0.18060997 0.03550414 -0.17810347 0.17927190 -0.27050017 0.03863958 0.23313383 0.20775248 0.22359809 -0.37387985 0.08086065 0.45872815 0.39973054 0.01943312 0.62158896 -0.23635983 -0.08309847 -0.43613869 -0.26495937 0.06510604 -0.44966652 0.07849655 0.00627999 0.29071141 -0.04859638 -0.49975189 -0.09914784 0.32364196 -0.36122547 -0.20030228 0.18874935 -0.32296666 0.03055388 -0.15941480 0.15907362 -0.13307278 0.08200629 0.60752404 0.14452390 0.04795240 0.13572314 0.09637388 -0.23300784 -0.21478698 0.00607580 0.22714583 -0.33561031 -0.03399121 -0.31538041 0.55272785 -0.08661675 0.32825327 0.32435572 0.02528834 0.00682871 0.01254583 -0.04381956 0.00393206 0.00278919 -0.02567592 0.01953627 0.00505549 -0.01294615 0.00493586 0.00974706 -0.06655228 -0.01159642 0.01045189 -0.09465476 -0.00369368 -0.01741839 -0.08073579 0.00917706 -0.06543982 0.06210247 -0.01166730 0.00344201 0.03229207 -0.03257925 -0.02085391 -0.05124268 0.00163506 0.00124842 0.06649878 -0.03139876 0.01357526 0.03097373 -0.00238474 -0.00660867 0.04811770 0.02956845 -0.00153153 0.00989255 -0.00467167 0.01075528 0.02999646 -0.00038989 0.00079243 0.01199822 0.02890431 0.00820537 0.04199813 -0.00829744 -0.00574471 0.07302963 0.02372203 -0.00998664 0.03827670 0.00357866 -0.01161803 -0.08699518 -0.00853717 -0.04109368 -0.00531788 0.03906360 0.02903813 0.05091965 -0.01130446 0.00931135 0.05628482 -0.01585403 0.00848419 0.00816342 0.00144146 0.01964183 -0.03948040 0.01156253 -0.01153267 -0.03817497 -0.01103281 0.02509464 0.04614546 -0.00732838 0.01616399 -0.11941122 0.01137875 -0.00097057 -0.01491502 -0.01893429 0.01397502 -0.03648702 -0.00060252 -0.01869916 -0.03353871 -0.00570628 -0.00346008 0.01072604 0.00014891 0.00275965 -0.00371427
-0.23321631 0.18026558 0.46041358 0.67021148 -0.17689505 0.09878325 0.11103400 -0.90100204 0.24579550 0.42940977 -0.05240172 0.07654149 0.82080323 -0.35779369 0.35124410 0.40388983 0.23119410 0.31263586 0.35125367 -0.05466743 0.20928553 0.45050693 -0.01447886 0.16013005 -0.03565134 -0.19643618 -0.76226229 -0.08525215 -0.00178645 0.13087958 0.40598944 0.30484783 0.04545045 0.33356655 -0.15574628 -0.08988568 -0.10268597 0.29028562 0.33521441 0.31433468 -0.12669704 -0.21328638 0.22726738 0.54278637 -0.60848824 0.19460135 -0.09425566 -0.50184154 -0.12999734 0.28439097 0.05901428 -0.07312145 0.09325621 -0.49677565 -0.46313755 -0.06096782 -0.25204821 -0.43015783 -0.01852921 -0.06197130 -0.27674709 -0.67084100 -0.93820006 -0.67907954 -0.12107023 -0.20866157 0.11762086 -0.02938454 0.21908547 -0.29582391 0.03660205 0.25648228 -0.30745473 0.81224661 0.46303653 0.03195370 0.19424976 -0.05825807 0.00750572 0.16153589 0.13566583 -0.24697313 0.05188427 0.26517445 -0.03287272 -0.13980815 -0.14483444 -0.38249940 0.22851074 0.08785010 -0.46853277 -0.14510939 0.49168884 -0.62674538 -0.09418530 -0.06785814 0.06784368 -0.04140989 -0.01156183 -0.00285166 -0.01496744 -0.00142582 0.06565340 -0.05248199 -0.01600207 0.01975876 0.03066216 -0.00646027 -0.00427967 0.01646198 -0.00431575 0.01452787 -0.01413031 0.02008842 -0.01670910 -0.03374999 0.00758220 0.01249106 -0.01174191 -0.03854609 0.00033603 -0.02145585 -0.02281651 0.01009949 -0.02862764 -0.01659076 0.01348911 -0.06951286 -0.01528486 0.03900279 0.00908581 -0.03375962 0.01290571 0.01607011 -0.03404844 0.02362404 -0.01743566 0.01178633 -0.05271711 0.06647859 0.05131301 -0.01926685 0.02026602 0.03977282 -0.01318880 0.00975309 0.03750218 -0.01114941 0.04655088 -0.01004161 -0.01798313 -0.02903049 0.01916598 0.02012668 -0.04042451 -0.04046388 -0.07675147 0.02472583 0.10374621 -0.04206037 0.01552468 0.05307292 0.01649607 0.01229020 -0.01288314 0.00935044 -0.03973591 -0.03442488 -0.01587218 -0.01019017 -0.10647306 -0.01334232 0.01478360 0.05154230 0.00728463 -0.00150166 0.00274886 -0.00797001 -0.02351361 -0.02317120 0.00627739 -0.02622382 -0.02153232 0.02873923 -0.01550040 0.00604579 0.02802875 0.04623659 0.04368692 -0.00113082 -0.01366548 -0.02770258