ITEM: TIMESTEP
0
ITEM: NUMBER OF ATOMS
4000
ITEM: BOX BOUNDS xy xz yz pp pp pp
0.0000000000000000e+00 3.5494999999999997e+01 0.0000000000000000e+00
0.0000000000000000e+00 3.5494999999999997e+01 0.0000000000000000e+00
0.0000000000000000e+00 3.5494999999999997e+01 0.0000000000000000e+00
ITEM: ATOMS id type c_spin[1] x y z c_spin[2] c_spin[3] c_spin[4] fx fy fz c_spin[5] c_spin[6] c_spin[7]
1 1 1.32300000 35.32591316 0.09985963 0.01143002 0.70533102 -0.68728048 0.17364818 2.19798086 -0.76762116 -0.65516980 -152.16581685 123.65909138 94.88345330
2 1 1.32300000 35.39416559 0.00227870 7.06540539 0.00000000 0.00000000 1.00000000 0.71944094 0.61018027 0.08573205 -23.20998660 24.46394209 -53.93794266
3 1 1.32300000 0.01729215 35.47855651 14.34557904 0.02220693 0.15485023 0.98768834 0.56642667 0.80143274 -1.14300427 -30.20878787 -73.56816083 -193.41364379
4 1 1.32300000 35.27875466 35.48142059 21.43025993 -0.37269664 -0.66926923 0.64278761 0.69994299 -0.02739335 -1.12536906 166.58520587 92.60537956 1.01645972
5 1 1.32300000 0.04133743 35.39347035 28.31681695 -0.51765082 -0.54920322 0.65605903 -1.04949450 1.78207026 1.65171559 353.12300676 330.02090481 -394.36605356
6 1 1.32300000 35.29310360 7.22857684 0.13517398 0.58810261 -0.22400775 0.77714596 1.71338742 -0.51073438 -1.80731600 -237.78418192 149.46845681 -230.11260639
7 1 1.32300000 35.37256373 6.97552399 7.10630305 -0.44913863 -0.83832153 0.30901699 1.04064756 0.29744735 -0.06063011 8.87303665 149.45272099 56.68690366
8 1 1.32300000 35.45831858 7.04833537 14.12640546 -0.19346580 0.11477788 0.97437006 -0.03482340 0.38675761 0.28174918 -15.06811875 -100.82490788 -85.73853463
9 1 1.32300000 35.34816302 7.17308457 21.21527504 0.11173077 -0.90668712 0.40673664 0.91309875 -0.96915833 0.98818078 70.72522261 605.33020332 -154.18186666
10 1 1.32300000 35.48060651 7.24952163 28.33485926 0.60466984 0.43201691 0.66913061 -0.69662430 -1.59962531 1.55611764 -323.67036226 -293.63565980 -192.03147136
11 1 1.32300000 0.08358005 14.22523722 35.44636374 0.16817623 0.14939790 0.97437006 -0.65900475 -0.13906454 0.41196646 99.02467910 44.14413291 203.33996280
12 1 1.32300000 0.03215631 14.14860967 7.27980970 -0.58802786 -0.45440892 0.66913061 -2.00078244 1.42252444 -1.26727385 237.53622286 195.44820926 -184.85549509
13 1 1.32300000 0.06956687 14.40070380 14.21254780 0.01135739 0.19047069 0.98162718 -0.53234067 -1.43923424 -0.68193851 -73.39605951 -13.41000677 -99.03224052
14 1 1.32300000 35.46783131 14.14866983 21.25405240 0.39070345 0.87827949 0.27563736 0.31459717 0.08629953 0.06604143 -29.14921343 -131.05362911 30.78185709
15 1 1.32300000 35.31119711 14.09260681 28.57365738 0.00000000 0.00000000 1.00000000 0.95886011 2.41482568 -2.84278899 -3.29175309 -14.23596162 -181.65969858
16 1 1.32300000 0.16948535 21.19393620 35.46798176 0.20058706 -0.13524436 0.97029573 -0.78593712 0.64018466 -0.13453715 43.92950043 133.11583851 -137.15596547
17 1 1.32300000 35.47815394 21.16364670 7.16394415 -0.02828912 -0.08243694 0.99619470 -0.50948521 0.72005867 -0.61075952 2.37536565 52.73687545 -19.38429008
18 1 1.32300000 35.38987586 21.30638328 13.99903345 -0.04233188 0.45201259 0.89100653 1.85034258 -0.76035886 3.08149230 -15.88193412 -299.75300718 -625.22120499
19 1 1.32300000 0.22762549 21.46918834 21.20772164 -0.00558182 0.03445023 0.99939083 -2.69753885 -3.83347810 -0.14735462 23.27183139 48.14809455 -594.28432528
20 1 1.32300000 35.38616313 21.41561584 28.47295857 0.67776902 -0.70001870 0.22495105 1.16105146 -2.11449640 -1.30436494 -164.70057029 265.63297905 75.44734669
21 1 1.32300000 0.22029636 28.53268486 35.48062429 0.17584281 0.11093502 0.97814760 -3.74620080 -1.84647161 -0.54881137 -11.78055199 -63.59318695 -464.46960500
22 1 1.32300000 0.03241397 28.27608506 7.14870788 -0.42516266 -0.49965004 0.75470958 0.26463654 1.33649474 -1.22608894 207.67971630 148.87962892 -140.82831857
23 1 1.32300000 0.07055405 28.27911786 14.04806330 -0.22968739 -0.58590772 0.77714596 -1.40731931 0.86346000 1.73109511 143.25245821 213.33971344 -257.73820054
24 1 1.32300000 0.09441138 28.47584725 21.30895831 -0.27220658 -0.04335357 0.96126170 0.16911096 0.47144073 -2.24012613 126.12937145 44.95675572 -276.74989661
25 1 1.32300000 35.48680491 28.50766343 28.33906014 -0.55725472 0.77716534 0.29237170 -2.20033199 -0.93836095 0.10816773 219.25396818 -309.88604817 -67.79402952
26 1 1.32300000 7.13165405 0.04423695 35.48677067 0.00000000 0.00000000 1.00000000 -0.39418928 -0.77646258 0.03794048 21.42889539 0.37402773 37.36734154
27 1 1.32300000 7.14166884 35.47669045 7.03109219 0.87853329 -0.34954919 0.32556815 0.04047707 0.77043036 0.45093395 -231.15586007 25.86714935 21.16632095
28 1 1.32300000 6.91472630 35.42536741 14.24658103 -0.00588645 0.98767080 0.15643447 1.56800494 1.32579929 -0.53333870 1.17931238 -595.33507253 72.20576503
29 1 1.32300000 7.03477012 0.01874633 21.28488947 -0.01706747 -0.99437543 0.10452846 0.24764766 0.35698958 0.18480200 -43.81266493 10.16656949 114.56807640
30 1 1.32300000 7.18891770 35.25302728 28.46469535 0.13416404 0.22133077 0.96592583 -1.29664725 0.90955780 -1.19387321 -36.26978243 -81.20004093 7.85617020
31 1 1.32300000 6.89178124 7.14198381 35.48889904 -0.18954154 0.02195629 0.98162718 1.27472802 0.23993285 0.32591794 24.87625994 59.33277565 -3.72050818
32 1 1.32300000 7.12174779 7.05851986 6.98150561 0.89980502 -0.35123159 0.25881905 -0.74297791 -0.23941947 0.30160824 -210.81468879 -12.20967135 111.49898949
33 1 1.32300000 7.01859438 7.17886290 14.23539651 -0.55429483 0.26794830 0.78801075 0.41889486 -0.07144044 -0.81979262 66.17250346 17.49743517 -90.44899828
34 1 1.32300000 6.93134522 7.13610275 21.41245887 0.71713588 -0.37446578 0.58778525 0.64158915 0.14307651 -1.50348377 -75.02780258 61.46398225 70.40378339
35 1 1.32300000 7.19840816 7.00741710 28.24448670 0.30020312 -0.45443346 0.83867057 -2.11448670 2.23897087 1.76742929 -176.63092293 210.36993238 -284.34666749
36 1 1.32300000 7.17430945 14.31739105 0.04980446 -0.39270236 -0.30949128 0.86602540 -2.15192295 -0.42398092 -0.25005980 112.88819991 97.59520522 -173.43932379
37 1 1.32300000 6.82714497 14.05472182 7.03110150 -0.63007236 0.32094987 0.70710678 1.37341351 0.01029467 0.56219002 -54.74385471 -91.74721931 121.35956222
38 1 1.32300000 6.95187929 14.24579317 14.24794518 -0.75625934 -0.28736790 0.58778525 1.68702929 -0.16822912 -0.34756477 373.11580540 115.75709360 -246.36699109
39 1 1.32300000 6.96790360 14.06866167 21.39577741 0.20952322 -0.08187184 0.97437006 2.36841019 2.24668087 -0.62509627 -170.78392840 7.68938125 -363.63216282
40 1 1.32300000 7.22896824 14.31079184 28.45880351 -0.41256925 0.22403161 0.88294759 -0.78583709 -0.64211738 -1.39128914 195.09839771 -201.35538073 -481.66312129
41 1 1.32300000 7.02581974 21.23606122 0.01203651 0.17740865 0.31137399 0.93358043 0.20009419 1.34599689 -0.22544648 96.86563999 13.40094929 -126.53680829
42 1 1.32300000 7.08865819 21.35240903 6.95216637 -0.08356242 0.11129454 0.99026807 -0.01874082 -0.68843366 1.15650679 -176.48865803 -37.84724221 -7.61499236
43 1 1.32300000 7.23831870 21.32634203 14.21476898 -0.55474637 -0.47658651 0.68199836 -0.84413139 -0.27214790 -0.21192163 213.51791478 67.59912258 -175.56796551
44 1 1.32300000 7.24819379 21.19660996 21.63049037 0.72930659 -0.57252231 0.37460659 -0.98738715 1.50800110 -4.03166971 -294.97018576 244.01035096 -108.38448481
45 1 1.32300000 6.96956602 21.26115774 28.30797910 0.04496857 0.07465890 0.99619470 1.06200388 0.77997856 -0.18250769 -16.33671845 -97.32887427 128.63729626
46 1 1.32300000 6.96574594 28.39645984 35.47078690 0.67924318 0.62125509 0.39073113 0.47436910 0.50310820 -1.07176197 -432.15830317 -358.54452296 -84.16999433
47 1 1.32300000 6.88806101 28.34539749 7.08162765 0.94869481 -0.31183187 0.05233596 1.91136186 0.96929981 -0.16908150 -344.36407910 196.24772913 114.82810407
48 1 1.32300000 7.25688829 28.49387036 14.28969315 -0.13326680 -0.22187217 0.96592583 -1.26716412 -1.31470961 -0.47705613 35.53451183 106.03699779 -393.86454959
49 1 1.32300000 7.02117706 28.48045362 21.22655210 -0.18626110 -0.41402195 0.89100652 0.27509844 0.17750749 0.70302069 95.71060833 179.58869871 -180.53834996
50 1 1.32300000 6.98071964 28.36981110 28.44560977 -0.77630226 -0.62430656 0.08715574 2.27681987 0.03732802 0.55385081 227.72482675 269.37460621 122.63738436
51 1 1.32300000 14.03943979 0.09431191 35.38237845 -0.15788751 0.16023268 0.97437006 1.20596186 -1.74375219 1.08225887 119.65510371 -81.54609800 -415.81015009
52 1 1.32300000 14.35655534 0.01191007 7.24857855 0.09441828 -0.97707580 0.19080900 -0.29286581 0.14242009 -0.89431341 30.22134406 -131.77624695 145.80405911
53 1 1.32300000 14.25869018 35.48221382 14.49973236 -0.08981684 -0.26059334 0.96126170 -1.70792134 0.32036557 -2.58380697 -7.72141813 86.70575490 -273.48298374
54 1 1.32300000 14.19377418 35.47614289 21.17480512 -0.46916939 -0.82090527 0.32556815 -0.32669650 0.56739883 0.57616740 4.18878960 185.58030627 92.76613582
55 1 1.32300000 14.09123202 35.31008865 28.37164630 0.70020958 -0.62668075 0.34202014 0.24251217 1.31862196 0.38713065 -124.23909623 114.23742647 52.77889680
56 1 1.32300000 14.20073472 7.18903507 35.30293267 -0.85135348 -0.36724264 0.37460659 -1.08044402 -1.05276289 1.22573189 189.56574509 121.04985322 -8.30513637
57 1 1.32300000 14.11748259 7.05902560 7.14066375 0.00000000 0.00000000 1.00000000 1.77769769 0.40523422 -0.03030333 59.89113806 -70.43951571 -119.70270268
58 1 1.32300000 14.31703225 6.89820915 14.20487010 0.59405552 -0.24550754 0.76604444 0.24207915 1.28680913 0.41703620 -106.40262936 -33.45865383 -55.76732399
59 1 1.32300000 14.17474931 7.08551181 21.22025003 0.69454576 0.01250776 0.71933980 0.89637717 0.13629136 0.89656681 6.13596545 -58.89348810 117.55996982
60 1 1.32300000 14.20274018 6.90313203 28.47552933 0.01993506 0.25805017 0.96592583 0.10609701 2.44968878 -1.27864078 -49.50376263 -138.14521458 -294.31643602
61 1 1.32300000 14.35799644 14.40266836 0.04112744 -0.16495013 0.28068858 0.94551858 -2.13487338 -2.28280827 -1.42223902 171.15175045 -148.89431011 -401.65581170
62 1 1.32300000 14.23335063 14.07603916 7.04397247 0.39237498 0.30990624 0.86602540 -0.02431981 1.20008197 0.47074111 -29.01226048 -4.35937731 -11.73255194
63 1 1.32300000 14.16410749 14.01150075 14.21967638 -0.91854239 -0.26608018 0.29237170 0.75407664 0.90419470 -0.46268514 103.26680441 69.62979066 105.75186713
64 1 1.32300000 14.13357245 14.31485807 21.23364601 -0.68457970 -0.72370886 0.08715574 0.23724864 -0.76769789 0.10536192 -14.81820777 75.69228212 36.13234069
65 1 1.32300000 14.20255753 14.18865309 28.47208837 -0.31759292 -0.54330368 0.77714596 -0.55034367 0.37430282 -0.36072864 71.51606214 67.53394819 80.40284121
66 1 1.32300000 14.29447696 21.36354814 35.45346714 -0.01706198 -0.00367089 0.99984770 -0.33244003 -0.33786299 0.31875743 -37.94697919 -64.34070283 218.37030126
67 1 1.32300000 14.13356303 21.24908967 7.05437983 -0.95053459 0.29814070 0.08715574 1.01776404 -0.22949965 0.80595798 -15.88002056 -33.82548318 52.52087312
68 1 1.32300000 14.19359996 21.55102565 14.34209527 -0.00520997 0.03450842 0.99939083 -0.26095940 -1.69314413 -1.59939072 -32.95516727 -101.80562483 -219.29469254
69 1 1.32300000 14.04020457 21.19286032 21.21121120 0.11926780 0.35511307 0.92718385 2.30151458 0.87515104 1.29122513 -69.15860723 -13.32798487 -48.15247189
70 1 1.32300000 14.15080725 21.32798869 28.19857077 0.57162356 -0.75316126 0.32556815 0.26714055 -0.58350635 1.54633290 -231.73691682 392.82422218 23.84909749
71 1 1.32300000 14.13470476 28.47609972 35.34719900 -0.70648165 0.13540097 0.69465837 -0.63691777 -0.67283837 3.03098308 444.44982990 -121.87890009 -344.70744071
72 1 1.32300000 14.11233972 28.26209610 6.94946767 0.73631088 0.65831189 0.15643447 1.49517175 0.48078529 0.18377098 -302.75215279 -348.01445730 15.00596615
73 1 1.32300000 14.26459937 28.43794805 14.21300896 0.49399196 0.45133991 0.74314483 -0.06282725 -0.53376515 -0.36353517 2.04771709 23.11209230 263.46785672
74 1 1.32300000 14.29878329 28.41528018 21.15882022 0.17597482 -0.07376269 0.98162718 -0.55379601 1.52598862 1.42976543 38.83062964 84.79065641 -156.67801812
75 1 1.32300000 14.05000698 28.41399192 28.31451620 -0.87370877 0.41188067 0.25881905 2.16469422 -1.15301639 1.57243811 598.93410243 -255.93543795 -97.54481509
76 1 1.32300000 21.26006425 0.12155249 35.37400325 -0.13469244 0.15838314 0.97814760 0.56667356 -2.39790814 1.71554418 -20.20437878 -66.55703407 -422.37581474
77 1 1.32300000 21.25308050 35.41907045 7.21269859 0.53148513 0.33699809 0.77714596 0.03319993 -0.21907186 -0.95752978 -91.94858641 -186.26570062 -84.29177120
78 1 1.32300000 21.35498964 0.07476440 14.15105075 0.42731099 -0.22901024 0.87461971 0.54616346 -0.36654888 0.30695812 127.50797502 -138.78771786 148.17505453
79 1 1.32300000 21.28643070 0.04811498 21.31578249 -0.06130013 0.36955702 0.92718386 -0.60749341 -0.96910875 -0.43364478 -36.97528989 11.46155441 -74.82733241
80 1 1.32300000 21.15116794 0.05584266 28.41268637 -0.72123902 0.50932380 0.46947156 2.75018215 -0.35399406 -0.77213828 319.99165948 -211.56338054 -111.86879123
81 1 1.32300000 21.41883962 7.18381127 35.43131918 0.02881358 -0.04369016 0.99862953 -0.76025540 -0.55114967 0.45782916 66.00809547 41.17152994 -75.14890917
82 1 1.32300000 21.20639075 7.23576794 7.22405706 0.01323638 -0.01137474 0.99984770 0.81402350 -2.14428229 -1.91643220 59.31180048 73.88018188 -365.96260045
83 1 1.32300000 21.18453913 7.05199467 14.09598961 0.23075062 -0.22967102 0.94551857 0.65832957 0.38139283 0.34827529 -168.59624199 115.55635356 -396.03062875
84 1 1.32300000 21.11592145 7.23281648 21.36528784 0.73652580 -0.62493395 0.25881905 1.28778086 -0.98823832 -1.19056024 -213.38740871 246.79851933 -20.88642247
85 1 1.32300000 21.54321550 7.18467128 28.40664967 -0.56921486 -0.14658086 0.80901699 -1.20780261 -0.47611338 -1.10927229 51.10016942 92.56700850 4.25661951
86 1 1.32300000 21.21065892 14.08739169 0.01672235 0.35229697 -0.90845136 0.22495105 0.35749777 1.02451491 0.76020757 -29.41743799 40.30467328 109.09952735
87 1 1.32300000 21.31160644 14.22775370 7.07527694 -0.39179150 0.25865608 0.88294759 -0.14078849 -0.50983872 0.27324146 79.20013241 78.36158554 175.38464095
88 1 1.32300000 21.18939971 14.29883073 14.18267266 0.32430209 0.70624641 0.62932039 0.53878149 -0.20034041 0.28353895 93.87802859 -41.00476745 154.13629726
89 1 1.32300000 21.27227249 14.10783440 21.13795676 0.83951518 -0.48650597 0.24192190 0.24405736 0.39216332 0.29290107 -149.30550693 43.55001425 83.20953888
90 1 1.32300000 21.30739847 14.29050860 28.41588962 0.35328076 -0.70438175 0.61566148 -0.22705287 -1.44730792 0.22775010 -38.30141120 95.21665728 28.45362713
91 1 1.32300000 21.29081336 21.15129002 0.15840317 0.37318029 0.82591178 0.42261826 -0.42171814 1.85052910 -2.09592747 -28.19304427 -221.72841628 -37.36727968
92 1 1.32300000 21.33554727 21.23336574 7.02759411 -0.25323670 0.10884451 0.96126170 -1.12025291 0.24100079 1.19267065 159.66860100 -42.90264871 -258.79852203
93 1 1.32300000 21.13982327 21.25113129 14.23252334 0.87723032 0.19569799 0.43837115 0.45587223 -0.08698139 -0.12677352 145.76415808 -44.08633738 180.97455943
94 1 1.32300000 21.32044333 21.26635838 21.43690765 0.11298242 -0.08126576 0.99026807 -0.04344137 -0.84832387 -0.43722628 65.59022785 -42.17212264 -222.57874047
95 1 1.32300000 21.46127194 20.93399375 28.45350730 0.76803274 -0.64017273 0.01745241 -1.23893211 2.64084208 -0.90872782 -249.55588245 200.75721408 161.40293675
96 1 1.32300000 21.05892856 28.32821897 0.02952008 0.20568518 0.25236527 0.94551858 2.15523952 -0.05037466 -0.80747582 -77.63211530 -65.88173052 -168.63732426
97 1 1.32300000 21.31731606 28.43962162 7.06413352 -0.22389041 -0.32022476 0.92050485 -0.14803735 -0.51723870 0.28028439 -57.05092092 89.54717959 50.70684778
98 1 1.32300000 21.32385012 28.37870579 14.23686431 0.14967415 0.08804169 0.98480775 -0.81908250 0.30813187 -0.52853269 -101.08836320 -58.37281024 -528.73640255
99 1 1.32300000 21.29655096 28.41608491 21.00109234 -0.83263217 0.50608369 0.22495105 -0.50034521 0.16516170 1.82284237 104.36091433 -122.07828385 46.29681601
100 1 1.32300000 21.20822916 28.35789586 28.35551842 -0.27493174 0.01971009 0.96126170 1.52753023 0.67622502 0.54074923 56.86052903 -55.53012259 -208.66633245
101 1 1.32300000 28.34521446 0.11773108 35.41980426 0.70376932 0.66160520 0.25881905 0.38986648 -1.07713569 0.29522256 -105.86367006 -73.16617561 120.33836130
102 1 1.32300000 28.38235477 35.40787811 7.03687212 -0.47855511 -0.26003208 0.83867057 0.46997913 0.40322851 0.23321683 -11.03487570 -9.43366072 26.10658954
103 1 1.32300000 28.32124459 35.39732799 14.21711562 -0.33617902 0.40963166 0.84804810 0.14459431 0.13825215 0.41027747 15.19517258 110.11236128 34.67151569
104 1 1.32300000 28.29860477 35.44832825 21.48368359 -0.75258869 -0.60549398 0.25881905 2.35615882 -0.12936377 -1.89968957 206.02059860 185.51629768 5.42299793
105 1 1.32300000 28.50672193 35.47359035 28.24441813 0.04869183 -0.07228574 0.99619470 -1.49859841 0.98784211 0.96656333 2.29099143 56.83094604 -317.57391016
106 1 1.32300000 28.36548241 7.06937614 0.11218766 0.00468620 0.01681148 0.99984770 -0.52237888 0.69292025 -3.58141677 -53.05541292 -48.99092131 -724.68713814
107 1 1.32300000 28.64792660 6.98883146 7.10887405 0.01144111 0.08640153 0.99619470 -1.08535934 0.64509555 -0.21955173 105.65077004 -38.67243539 127.09211350
108 1 1.32300000 28.24101033 7.07190776 14.19259695 0.20033876 -0.16386482 0.96592583 0.90819341 -0.73576895 -0.17908178 -123.63085824 14.48517576 -34.80912822
109 1 1.32300000 28.44772259 7.16264307 21.18547397 -0.15607802 0.13735692 0.97814760 2.58853435 -1.44480508 -0.61961488 130.88041995 -58.01271748 -510.41174029
110 1 1.32300000 28.38851617 7.11349458 28.50463479 -0.81087892 0.43566565 0.39073113 0.40545097 0.12762719 -0.85089520 245.91372321 -47.27053812 64.02581243
111 1 1.32300000 28.41558330 14.33398296 0.10348296 0.06106226 -0.10546818 0.99254615 -0.11837567 -0.68382041 -0.76618702 8.10557022 -44.00076046 -101.15135651
112 1 1.32300000 28.37977313 14.40578527 7.14709309 0.39646622 -0.68101063 0.61566148 0.27819199 -1.77870015 -0.60549953 -0.05015822 -47.26556828 -43.01120425
113 1 1.32300000 28.37226178 14.25117143 14.24068754 -0.60883583 0.27758729 0.74314483 0.57751229 -0.04421887 -1.07695328 120.74642289 -100.03079794 -182.44300153
114 1 1.32300000 28.30900669 14.31813873 21.29767174 0.82656515 0.54066470 0.15643447 0.33413579 -1.10232133 0.32624844 -263.54008150 -162.52169023 20.25049496
115 1 1.32300000 28.39999045 14.32027725 28.47277724 0.37027090 -0.43805181 0.81915204 -0.49300253 0.17873312 -0.56201205 -110.64579675 134.25391893 -162.77090322
116 1 1.32300000 28.29640528 21.19005492 0.06293861 0.68907571 0.59978326 0.40673664 0.68978882 1.52848949 -1.94904638 -239.60452744 -318.99987281 -101.06570568
117 1 1.32300000 28.37912636 21.29943384 7.06247377 0.21160519 0.11725804 0.97029573 0.59466454 0.25752137 0.05723301 12.16296311 23.52991684 58.92595630
118 1 1.32300000 28.34564189 21.30828968 14.14649945 0.18533164 0.34398110 0.92050485 0.67552246 -0.45513920 0.53540097 -87.06235741 -65.13739794 -69.04891359
119 1 1.32300000 28.61155793 21.34920459 21.24317534 0.36715145 -0.44066965 0.81915204 -3.69526214 -1.31333825 -0.11780741 -275.76011100 180.68994387 -376.28889918
120 1 1.32300000 28.26692119 21.04338186 28.44606654 -0.80379185 0.51810950 0.29237170 2.12812998 0.95340386 0.02202635 143.96860375 -79.22738920 77.36401126
121 1 1.32300000 28.22796394 28.31585849 35.31988286 0.13219815 0.26077742 0.95630476 1.83580457 0.63182082 0.86660787 -149.77099422 -144.20063268 -307.66605224
122 1 1.32300000 28.49622432 28.36204384 6.95824914 -0.71176828 0.69698622 0.08715574 -0.57356452 -0.28348355 1.26655553 118.50581081 -124.19784186 84.20265589
123 1 1.32300000 28.41072720 28.41012641 14.11712332 -0.52768583 -0.55531231 0.64278761 -0.44737138 -0.63706162 1.37466307 178.71975487 178.85593336 -198.55614586
124 1 1.32300000 28.42178273 28.36586219 21.39006384 -0.04135699 -0.81810737 0.57357644 -0.05092366 -0.02034399 -0.79964523 -86.69985089 -134.19444110 199.91334108
125 1 1.32300000 28.38829851 28.39967821 28.24934304 0.18489852 -0.12812305 0.97437006 0.37508174 -0.14593739 0.64437572 -133.02227584 63.83876588 -273.04802465
126 1 1.32300000 3.59509988 0.02143489 0.19682881 -0.28759288 0.76700744 0.57357644 0.21214683 -0.15016899 -2.38497465 67.45725453 -284.32364147 -135.43100179
127 1 1.32300000 3.61044274 35.31496948 7.25871248 0.80920478 -0.39117561 0.43837115 -0.41066569 2.30613357 -2.91189304 -215.65415590 157.42746971 -53.87067111
128 1 1.32300000 3.73353971 35.46369105 14.14859872 -0.75704181 0.64752727 0.08715574 -1.33189838 0.29108993 -0.41778527 211.42135898 -293.10088675 108.57301160
129 1 1.32300000 3.42784286 0.05799982 21.37975359 -0.64997602 0.57230339 0.50000000 0.88932348 0.07444125 -0.19940351 175.06668858 -74.94704401 28.54180032
130 1 1.32300000 3.51885825 35.43859703 28.25098745 -0.41357907 0.43718837 0.79863551 1.08111152 0.63399948 1.05893190 37.93108849 -148.63806371 -136.18026252
131 1 1.32300000 3.47923815 7.08275328 35.41311881 0.51904673 0.71427372 0.46947156 0.53005836 0.75271158 0.80262036 -86.32992958 -34.41626462 -29.82813846
132 1 1.32300000 3.48630822 7.24142418 7.20692934 -0.00947614 -0.27547442 0.96126170 0.22545413 -0.62565866 -0.59279560 -22.18258673 -8.08142109 102.58341756
133 1 1.32300000 3.49415962 6.99500236 14.04218789 0.01476055 -0.03162437 0.99939083 0.70516683 0.19825571 0.95443383 -71.48954214 -16.58072694 -46.33110701
134 1 1.32300000 3.61807727 6.99708082 21.30412102 -0.36809910 0.43987837 0.81915204 -0.57941681 1.56057612 0.18382622 73.61944151 -4.81933130 14.64105051
135 1 1.32300000 3.53116445 7.33203877 28.52573991 -0.44984921 -0.06118056 0.89100652 0.92974757 -3.40254464 -1.16210653 255.75652285 27.68514775 -483.63332013
136 1 1.32300000 3.69226644 14.29614881 0.07853355 -0.80612223 0.23137689 0.54463904 -1.38683234 -1.23141469 0.26901980 253.31587900 -49.57308682 -41.77967887
137 1 1.32300000 3.75297725 14.09285921 7.06253525 -0.68435137 0.25795628 0.68199836 -1.81604814 1.59015785 0.30401072 16.87086240 -18.38289739 -75.10008231
138 1 1.32300000 3.68480210 14.17641703 14.29143260 -0.00963823 -0.01454961 0.99984770 -0.62184926 0.39065139 -0.74326795 -28.38537411 -5.07812158 -207.99199269
139 1 1.32300000 3.51290507 14.07591650 21.49989371 -0.28269598 0.19251171 0.93969262 0.36144235 2.33047636 -1.64430565 127.91192723 17.62439744 -202.26018833
140 1 1.32300000 3.72101494 14.17275200 28.42274412 0.87403855 0.38804046 0.29237170 -2.06745540 0.95154267 -0.66007407 -401.64133664 -73.75072343 31.56065988
141 1 1.32300000 3.44406710 21.17840666 35.46241113 0.77937274 -0.60671772 0.15643447 0.82939412 0.05767619 0.71578727 -51.78595750 65.73209568 47.31125412
142 1 1.32300000 3.78208793 21.33830722 7.06818950 -0.73134892 -0.00264585 0.68199836 -1.18340191 -0.43614913 0.10262413 -121.01891887 20.20540062 215.25236174
143 1 1.32300000 3.39628783 21.27755916 14.33791269 -0.40794525 -0.80088164 0.43837115 0.96871076 0.18452823 -1.06275526 12.66918101 87.14623361 81.67918546
144 1 1.32300000 3.56851383 21.33990338 21.11135675 -0.08390146 0.33156949 0.93969262 -0.53845377 0.37670193 1.78159561 -76.20372299 -49.02177562 -109.89759123
145 1 1.32300000 3.58962189 21.14635012 28.40231920 0.14456736 0.12453253 0.98162718 -0.45792368 0.86264289 -0.29019702 -72.42618320 -45.23482803 -227.01802115
146 1 1.32300000 3.43766761 28.26626820 35.49003930 0.68186642 0.64659138 0.34202014 1.08467432 1.03580454 -0.23471935 107.07976265 65.55406221 210.61819036
147 1 1.32300000 3.53061539 28.37197147 7.07751127 0.16582500 -0.96015577 0.22495105 0.48168369 1.06153972 -0.78847219 -136.60857372 446.90172105 5.27225068
148 1 1.32300000 3.60741336 28.50562284 14.01462751 -0.33589080 0.76846971 0.54463904 -1.52572743 -1.30671232 1.69423025 118.58582815 -302.07753784 -134.85276246
149 1 1.32300000 3.63579108 28.21063981 21.26931209 0.48714827 -0.11263465 0.86602540 -1.23228001 1.97363559 -0.59011344 -127.47556242 93.50492168 -193.24362916
150 1 1.32300000 3.42620309 28.45933361 28.40099128 0.25917548 0.47901957 0.83867057 2.28503452 -0.92102905 -0.64902205 -141.22553330 -206.36140132 -175.56083953
151 1 1.32300000 10.30934563 35.39223601 0.14274957 -0.72249549 0.53463166 0.43837115 2.97364635 0.41529128 -3.06076138 362.44905292 -293.64340912 -122.16393440
152 1 1.32300000 10.57276517 0.09178267 7.09078695 -0.60714048 0.28127604 0.74314483 1.98915125 -1.06767616 0.58975837 330.72020891 -94.78100429 -174.26382223
153 1 1.32300000 10.50708027 35.35433361 14.02694595 0.05411919 0.78615015 0.61566148 1.24586499 0.04359630 0.89734468 -13.49136279 28.65663219 131.14777366
154 1 1.32300000 10.73644919 0.16386266 21.46994402 0.51860703 0.78362553 0.34202014 -0.65938856 -2.73425156 -2.30501668 -352.77220177 -331.91433041 -100.86850666
155 1 1.32300000 10.65236291 0.02900226 28.30683729 -0.42840472 0.90291274 0.03489950 -0.06002884 -0.04207316 0.11861117 50.81367239 1.12031160 90.94335616
156 1 1.32300000 10.62222250 6.99182716 35.33186006 0.10097517 0.09577665 0.99026807 0.25872954 0.68554565 3.29908032 -69.95960937 -63.76924066 -642.28300854
157 1 1.32300000 10.68355076 7.13293275 7.10789411 -0.77247357 -0.45947288 0.43837115 -0.19065941 0.05694002 0.56140662 206.13848434 76.14864191 68.64045846
158 1 1.32300000 10.52992502 7.10419255 14.22166769 -0.14997250 -0.94447183 0.29237170 1.97794601 0.15472242 0.89221714 87.18386068 387.02194218 -7.37119490
159 1 1.32300000 10.88516891 7.13713273 21.35444357 -0.07011281 0.13984254 0.98768834 -3.18945890 -0.49260696 -1.22231234 127.64255046 -36.73382090 -432.74112203
160 1 1.32300000 10.82029576 7.06556459 28.29113015 -0.64257192 0.01665064 0.76604444 -3.63252174 -0.78724783 2.41962281 685.65745114 75.96793949 -694.90629578
161 1 1.32300000 10.62776296 14.25520199 0.20336112 0.36853092 0.17210363 0.91354546 -0.54174702 -0.66433285 -2.09766229 46.71850946 18.07929531 79.80457248
162 1 1.32300000 10.41516551 14.27520156 7.18313904 0.06240171 0.31953192 0.94551858 1.53993823 -0.40562113 -0.84947327 1.82481718 -108.61257751 -129.73031052
163 1 1.32300000 10.65654427 14.11298844 14.02484842 -0.95626295 0.29041899 0.03489950 -0.85618453 0.73896665 1.47236260 194.96231686 0.61995318 44.48950621
164 1 1.32300000 10.37317435 14.16752549 21.21180065 -0.37206967 -0.57156445 0.73135370 4.04919586 0.56308769 1.96349619 242.82374755 297.31354369 -416.78520344
165 1 1.32300000 10.80098575 14.20203404 28.49119747 -0.53594148 0.20434446 0.81915204 -1.52631659 -0.76021704 -1.73306494 215.85408954 -106.20747267 -272.26938643
166 1 1.32300000 10.63288693 21.28009938 35.46466833 -0.44299755 -0.88565457 0.13917310 -0.42850058 0.05025126 -0.06008707 199.78302040 169.40591824 125.16905897
167 1 1.32300000 10.58387747 21.28741918 6.90512422 -0.10261919 -0.47382451 0.87461971 0.21499046 0.25234287 3.08269909 -57.70163406 338.03022316 -507.72048777
168 1 1.32300000 10.72789813 21.35348052 14.26912926 0.18630783 -0.43092104 0.88294759 0.45424033 0.65690524 -0.83587066 -26.33727928 123.72930304 -160.09465491
169 1 1.32300000 10.62367309 21.12575711 21.12408067 0.71964993 0.69236185 0.05233596 -0.42520463 2.42117610 0.86227332 -410.28835035 -326.68611580 57.64231667
170 1 1.32300000 10.52749184 21.27609893 28.33023990 0.73381546 -0.11738445 0.66913061 1.68497033 0.22115361 0.00921881 -291.48774512 108.96888361 -250.90751303
171 1 1.32300000 10.64209824 28.51449500 35.45294547 0.32484438 0.33893905 0.88294759 0.51262593 -1.47003454 0.65445136 -114.09998712 -33.21814706 -183.89394147
172 1 1.32300000 10.84159199 28.39105050 6.85924979 0.12873878 -0.11653333 0.98480775 -1.92010888 0.57378832 1.42295222 -27.00173372 68.87842178 -448.74192657
173 1 1.32300000 10.75895875 28.48546966 14.04462656 0.04930635 0.01754810 0.99862953 -0.67632361 -0.94479169 1.25837039 27.77438459 -15.37014740 -37.83711883
174 1 1.32300000 10.66914814 28.47538804 21.50912964 0.41096917 -0.89812727 0.15643447 -0.03566884 -0.62552776 -4.43719046 -226.55182706 329.63486982 66.76386834
175 1 1.32300000 10.62333805 28.33141871 28.37072696 -0.04053277 -0.54312869 0.83867057 -0.22884575 0.50082983 -1.29976225 -118.10636289 233.87520872 -301.71272476
176 1 1.32300000 17.89029026 35.48300069 35.45225152 0.32324282 -0.03884206 0.94551857 -1.38021339 0.99466518 0.61701270 -46.88963534 -13.32269067 -111.94790654
177 1 1.32300000 17.77999891 0.00296360 7.14243476 0.95137021 0.24184013 0.19080900 -0.01011536 1.24304526 -0.84042548 -140.46185427 -93.50066857 94.01353924
178 1 1.32300000 17.73208158 35.32922362 14.08495583 0.07100428 0.94840228 0.30901699 -0.66489288 1.25740196 2.00277922 -88.85416758 -269.33527216 -35.82028037
179 1 1.32300000 17.92743934 0.03598825 21.31695482 0.74799340 0.58737924 0.30901699 -0.98350285 -0.48531541 -0.75006552 17.11117228 -66.49352980 129.45591908
180 1 1.32300000 17.78738792 35.44352999 28.36006971 -0.60635373 0.66344999 0.43837115 -0.71368670 0.03772131 0.58275504 73.64896637 -190.00955576 12.48959666
181 1 1.32300000 17.60267203 6.99200733 35.43303806 0.06106701 0.54120467 0.83867057 0.55665649 1.20240334 -0.21736648 -61.30918468 -204.55103916 -209.90089322
182 1 1.32300000 17.69491072 7.19114590 6.91959140 0.10030436 0.06921830 0.99254615 -0.04679123 -0.64042964 1.55293613 -92.31950787 -52.34873435 -273.29665252
183 1 1.32300000 17.83543771 7.12193502 14.19738809 -0.39257352 0.41818173 0.81915204 -0.53173198 -0.52596445 0.86321649 71.20173603 -74.04190718 48.85398830
184 1 1.32300000 17.83504695 7.13111876 21.30220631 0.76070254 0.27539089 0.58778525 -1.58294506 0.08561002 -0.89843854 -278.04701442 -117.94009270 -220.64363191
185 1 1.32300000 17.87493194 7.12099150 28.41093545 -0.53217547 0.28101706 0.79863551 -0.45671855 -0.52412602 -0.43502946 91.69199424 21.50839797 -76.42577904
186 1 1.32300000 17.64601582 14.12376469 0.01805232 0.17175576 -0.97757241 0.12186934 0.65611981 -0.04904114 -1.03115016 -155.49248297 -66.01042573 95.01169799