ITEM: TIMESTEP
100
ITEM: NUMBER OF ATOMS
4000
ITEM: BOX BOUNDS xy xz yz pp pp pp
0.0000000000000000e+00 3.5494999999999997e+01 0.0000000000000000e+00
0.0000000000000000e+00 3.5494999999999997e+01 0.0000000000000000e+00
0.0000000000000000e+00 3.5494999999999997e+01 0.0000000000000000e+00
ITEM: ATOMS id type c_spin[1] x y z c_spin[2] c_spin[3] c_spin[4] fx fy fz c_spin[5] c_spin[6] c_spin[7]
1 1 1.31814230 35.49461063 35.49243550 35.46375096 0.05589790 0.11803969 0.99143434 0.00001068 0.00000122 0.00002466 1.04658778 0.38515041 -0.15508386
2 1 2.49591585 35.48931311 35.48916305 7.06758445 0.08058668 -0.04409184 0.99577191 -0.00002335 -0.00000582 0.00002757 -0.14014645 0.25137936 -0.85280251
3 1 2.52158260 35.49258541 35.49384874 14.16705418 -0.15619865 -0.05393379 0.98625206 -0.00002316 -0.00000598 0.00001232 -0.08853480 -0.59929336 1.61640986
4 1 2.52944749 35.49545544 0.00136087 21.26640077 0.11101851 0.02192820 0.99357639 0.00000913 0.00000041 -0.00000028 0.27216133 1.21922433 -0.24335795
5 1 0.76384313 35.49357527 0.00056717 28.36531615 -0.07419954 -0.05202530 0.99588543 0.00003046 0.00000497 0.00000715 -0.90033913 -0.45334386 -1.11205270
6 1 1.65296898 0.00201449 7.09784653 35.46436234 0.10896844 0.15251111 0.98227605 -0.00001745 -0.00000906 0.00000618 0.94323933 0.84012783 2.97722430
7 1 1.11339302 35.48969376 7.09299025 7.06798238 0.06782647 -0.05126983 0.99637893 -0.00004613 0.00000147 0.00000865 0.13915598 0.13490472 -1.29912554
8 1 0.90077766 -0.00093244 7.09918294 14.16690116 -0.13133650 -0.07052866 0.98882578 -0.00004337 0.00000252 0.00000530 -0.43715501 -0.62969190 0.33876941
9 1 0.34896570 0.00031600 7.10066630 21.26625014 0.13565150 0.07046554 0.98824758 -0.00001551 -0.00000737 0.00000031 -0.02110997 0.52244941 1.25045372
10 1 1.28676862 -0.00011686 7.09989072 28.36557814 -0.11360776 -0.06936874 0.99110103 0.00000065 -0.00001468 0.00000086 -0.39022079 -0.84194644 0.24164085
11 1 3.62208613 35.49559362 14.19629895 35.46472712 0.12634451 0.14722506 0.98100043 -0.00000895 -0.00000590 -0.00001830 0.85175617 0.62126803 2.57828222
12 1 0.81393707 35.48907820 14.19258312 7.06862016 0.06322452 -0.05777049 0.99632587 -0.00003641 -0.00000701 -0.00001322 0.13900565 0.52789566 -1.50733094
13 1 1.74344369 35.49442040 14.19939222 14.16721778 -0.13597662 -0.09027931 0.98659009 -0.00003444 -0.00000947 0.00000081 -0.13583714 -0.37238695 0.43995161
14 1 0.95571702 0.00084305 14.19959460 21.26616161 0.09453517 0.08147972 0.99218151 -0.00000818 -0.00000937 0.00000417 0.73570466 -0.05853806 -0.14469905
15 1 1.11590938 0.00000695 14.19846567 28.36525288 -0.07146660 -0.05928235 0.99567973 0.00000820 -0.00000684 -0.00000763 -0.82247289 -0.52620398 -1.10545922
16 1 1.53001008 35.49319486 21.29391285 35.46437369 0.08564987 0.11717647 0.98941082 0.00002465 0.00000673 -0.00001485 0.62271164 -0.29689177 -0.12192954
17 1 2.92383637 35.48869316 21.29189222 7.06846054 0.06319198 -0.04451847 0.99700796 -0.00000767 -0.00001948 -0.00000785 0.27111693 0.26815743 -1.58584922
18 1 0.85290878 35.49338320 21.29768899 14.16747897 -0.13501578 -0.06924605 0.98842082 -0.00000911 -0.00002551 0.00000483 -0.62079165 -1.05968689 0.52086674
19 1 0.79285400 35.49666979 21.29837019 21.26639643 0.04194353 0.04796768 0.99796786 0.00002137 -0.00000286 0.00000565 1.51198916 0.03726001 -1.38957105
20 1 0.41404354 35.49421003 21.29705613 28.36495765 -0.00344473 -0.03901157 0.99923282 0.00004330 0.00001783 -0.00000678 -1.98170587 -0.17184992 -2.20921043
21 1 1.54840799 35.49269348 28.39253694 35.46377425 0.06419542 0.09863707 0.99305069 0.00003686 0.00001108 0.00001159 0.18356975 0.21566197 -1.39847353
22 1 1.50661646 35.48870023 28.39068173 7.06775136 0.06656484 -0.03304320 0.99723481 0.00000044 -0.00001870 0.00001731 0.39053288 0.17133470 -1.33256251
23 1 0.80911028 35.49234377 28.39520788 14.16727567 -0.16379246 -0.05093219 0.98517914 -0.00000194 -0.00002349 0.00001202 0.04637616 -1.03825883 1.72034739
24 1 0.88420091 35.49624249 28.39722224 21.26648531 0.07431377 0.01794351 0.99707346 0.00003209 0.00000328 0.00000299 0.20150637 0.57632726 -1.46623560
25 1 0.55771067 35.49334880 28.39615852 28.36499525 -0.01243838 -0.02932699 0.99949248 0.00005707 0.00002515 0.00000237 -1.58764035 -0.51285769 -2.16880539
26 1 1.02345899 7.09834428 35.49109053 35.46363581 0.01888759 0.09264748 0.99551982 0.00001143 0.00001728 0.00002542 1.37514226 0.33426727 -1.14767606
27 1 1.27083290 7.09351936 35.48993916 7.06764805 0.08242160 -0.06240676 0.99464168 -0.00002015 0.00000579 0.00002472 -0.05899918 0.92530769 -0.97394415
28 1 0.62644133 7.09678833 -0.00048617 14.16695801 -0.13421320 -0.04593486 0.98988727 -0.00001435 0.00000375 0.00000753 -0.05631465 -1.12921929 0.47312154
29 1 2.35167549 7.09944809 0.00083300 21.26609174 0.08218622 0.01379284 0.99652154 0.00001954 0.00001462 -0.00000272 0.38507145 0.73021869 -1.57914846
30 1 3.07453682 7.09773714 35.49466806 28.36504983 -0.04493507 -0.00868455 0.99895216 0.00003636 0.00002351 0.00000803 -0.72747687 -0.72007418 -2.46038456
31 1 3.64727612 7.09993166 7.09636019 35.46414183 0.08320114 0.11592803 0.98976677 -0.00000253 -0.00000757 0.00000687 0.70480579 1.05137319 0.76272095
32 1 1.92443497 7.09352461 7.09352347 7.06817853 0.06586705 -0.04469318 0.99682699 -0.00002865 -0.00000073 0.00000588 0.10896637 0.33628471 -1.60333433
33 1 1.16489070 7.09752940 7.09829800 14.16702434 -0.11324716 -0.05124965 0.99224420 -0.00002277 0.00000046 0.00000059 -0.53119361 -1.05620008 -0.16263904
34 1 1.44648622 7.09922103 7.09893648 21.26576438 0.08693812 0.05399280 0.99474949 0.00000537 -0.00000470 -0.00000177 0.62696418 0.33304230 -0.99130221
35 1 1.33577832 7.09932419 7.09840950 28.36511858 -0.10468837 -0.05503337 0.99298121 0.00001842 -0.00000968 0.00000198 0.30216779 -0.31450203 -1.28680967
36 1 1.47759225 7.09895465 14.19578477 35.46449822 0.14866634 0.16461767 0.97508940 -0.00000633 -0.00002810 -0.00001733 1.14969176 1.00351020 3.32714337
37 1 2.97588613 7.09303230 14.19274231 7.06871533 0.05829289 -0.03873952 0.99754759 -0.00003061 -0.00002742 -0.00001601 -0.05064165 0.37973764 -1.78697502
38 1 1.02899714 7.09855262 14.19825915 14.16729521 -0.13851920 -0.08210510 0.98695045 -0.00002535 -0.00002769 -0.00000407 -0.42938260 -0.48601766 0.45867956
39 1 1.82550152 7.09976923 14.19734771 21.26579748 0.09699627 0.09327012 0.99090484 0.00000083 -0.00002825 0.00000185 1.02179087 -0.14027661 0.01251281
40 1 0.63023721 7.09949342 14.19771868 28.36497554 -0.10314706 -0.09754375 0.98987166 0.00001295 -0.00002863 -0.00000619 -0.69810168 -0.03714196 -0.15550767
41 1 1.69452022 7.09659633 21.29354320 35.46419882 0.12100351 0.14118017 0.98256110 0.00000480 -0.00001678 -0.00001377 0.58703773 0.06759049 0.89019916
42 1 2.04386056 7.09267286 21.29218353 7.06846088 0.05443757 -0.03451607 0.99792043 -0.00002351 -0.00003728 -0.00001069 0.43427223 0.09334365 -1.59877183
43 1 0.85511085 7.09857092 21.29805508 14.16743618 -0.17038462 -0.09241705 0.98103423 -0.00001867 -0.00004190 -0.00000007 -0.15378338 -0.63048690 1.89996262
44 1 2.18402804 7.10050297 21.29706608 21.26614456 0.09668817 0.06502826 0.99318816 0.00001182 -0.00002404 0.00000282 0.64881185 0.25665696 -0.54376530
45 1 1.32233915 7.09820455 21.29693483 28.36471940 -0.04701793 -0.06953609 0.99647080 0.00002686 -0.00000814 -0.00000521 -1.51085487 -0.07042271 -1.83788170
46 1 0.72371600 7.09672497 28.39197019 35.46377287 0.04885448 0.10281037 0.99350051 0.00001579 0.00001100 0.00001249 0.61509971 -0.07634568 -1.17918345
47 1 1.56548080 7.09279778 28.39141833 7.06764177 0.07650634 -0.05014003 0.99580759 -0.00001711 -0.00001673 0.00001433 0.01184992 0.51129072 -1.31372270
48 1 1.01771857 7.09758552 28.39669135 14.16708942 -0.16600898 -0.06111018 0.98422892 -0.00001196 -0.00002274 0.00000703 0.22520110 -1.24783719 1.21140138
49 1 0.73319091 7.10030795 28.39703991 21.26638500 0.09121905 0.01478776 0.99572105 0.00002330 0.00000239 0.00000008 0.16150434 0.83767753 -1.30149077
50 1 1.54788953 7.09732106 28.39605739 28.36489261 -0.02419201 -0.01701110 0.99956259 0.00004132 0.00002416 0.00000355 -0.93016416 -0.58218136 -2.48512737
51 1 0.88120500 14.19715810 35.49148535 35.46381648 0.03734695 0.05283477 0.99790465 0.00001281 0.00001286 0.00002226 0.43486146 0.68660860 -1.58350834
52 1 1.92879541 14.19235966 35.49044277 7.06755537 0.06949844 -0.00552400 0.99756677 -0.00001432 0.00000082 0.00001670 0.11630106 -0.15691818 -1.40797346
53 1 1.09722191 14.19617763 35.49353387 14.16703826 -0.14622597 -0.08020389 0.98599457 -0.00001073 0.00000016 -0.00000017 0.08716652 -0.35319324 1.14728000
54 1 0.79041132 14.19866538 35.49591494 21.26645589 0.07759588 0.00952525 0.99693939 0.00001731 0.00001213 -0.00000532 0.47690614 0.37141833 -1.67863092
55 1 3.04105329 14.19697659 35.49498961 28.36536359 -0.05283632 0.01873444 0.99842744 0.00003271 0.00002047 0.00000856 -0.20509947 -1.23257635 -1.98792132
56 1 1.08407277 14.19750542 7.09627057 35.46414588 0.06308169 0.04054029 0.99718463 0.00002428 0.00000147 0.00000457 0.26878267 1.53794355 -0.69297037
57 1 2.46234949 14.19256003 7.09421318 7.06807135 0.05595767 0.01233316 0.99835697 -0.00000420 0.00000601 -0.00000141 0.18290226 -0.42074558 -1.86221377
58 1 2.31984782 14.19715395 7.09678513 14.16685616 -0.11914320 -0.03455716 0.99227552 -0.00000317 0.00000877 -0.00000613 -0.24910434 -1.08510421 -0.58040636
59 1 2.65341460 14.19888823 7.09876781 21.26591554 0.07027085 -0.00928250 0.99748476 0.00002493 0.00000599 -0.00000311 0.64771343 0.64695038 -1.62105652
60 1 1.25993747 14.19784425 7.09841689 28.36526832 -0.06961667 0.01388337 0.99747720 0.00004261 0.00000163 0.00000323 0.26826883 -1.36911956 -2.28027947
61 1 0.94195619 14.19764353 14.19571906 35.46449696 0.10709664 0.10056566 0.98914956 0.00000968 -0.00000865 -0.00001972 0.81840627 0.95935937 1.02651953
62 1 2.16238534 14.19228973 14.19291645 7.06858717 0.06276408 0.02281461 0.99776759 -0.00001786 -0.00000846 -0.00002347 -0.21226964 -0.72269403 -1.87426458
63 1 1.44232928 14.19760310 14.19630805 14.16713625 -0.12439588 -0.03209678 0.99171340 -0.00001589 -0.00000880 -0.00001134 -0.49495865 -1.27286824 -0.67395715
64 1 0.52704415 14.19918605 14.19675146 21.26591889 0.08290883 0.00092213 0.99655671 0.00001157 -0.00000925 -0.00000009 0.93179734 0.75400731 -1.03380490
65 1 2.79592328 14.19805198 14.19758724 28.36530017 -0.09231264 -0.05033141 0.99445720 0.00002776 -0.00000921 -0.00000519 -0.19399867 -0.16695161 -1.47201850
66 1 2.14576104 14.19614913 21.29324565 35.46412081 0.12326174 0.13152589 0.98361958 -0.00000957 -0.00000295 -0.00001687 0.65963797 0.38766007 0.86269349
67 1 2.90697454 14.19183677 21.29194136 7.06824850 0.06590680 0.00820550 0.99779204 -0.00003616 -0.00002223 -0.00001890 0.35823667 -0.48395572 -1.74854364
68 1 2.66680912 14.19696462 21.29633737 14.16767269 -0.15930564 -0.07097956 0.98467437 -0.00003112 -0.00002796 -0.00000848 -0.23712570 -1.03675271 1.27258790
69 1 1.47349454 14.19896144 21.29635757 21.26653118 0.11492981 0.02390106 0.99308604 -0.00000389 -0.00001214 -0.00000043 0.10490308 0.70035781 0.10463446
70 1 0.41226325 14.19743222 21.29701170 28.36524297 -0.09969481 -0.06934720 0.99259856 0.00000941 0.00000332 -0.00000504 -0.32448410 -0.39767255 -0.73751581
71 1 1.16929332 14.19627714 28.39184095 35.46390848 0.06120099 0.09703567 0.99339746 -0.00000823 0.00000977 0.00000875 0.74666191 0.17981424 -0.92102340
72 1 0.89928877 14.19169208 28.39134067 7.06757953 0.08604463 -0.01175177 0.99622197 -0.00003402 -0.00001667 0.00000570 -0.36908913 0.05862761 -1.18649379
73 1 3.90961489 14.19600746 28.39541720 14.16741987 -0.17468926 -0.10309139 0.97921184 -0.00002789 -0.00002237 -0.00000162 0.02700424 -0.40889030 2.68085717
74 1 1.90923440 14.19863747 28.39686776 21.26680258 0.10675420 0.03048836 0.99381789 -0.00000052 0.00000104 -0.00000361 0.03520845 0.32742817 -0.64331616
75 1 0.77654089 14.19675944 28.39633586 28.36542301 -0.07094058 -0.02814513 0.99708339 0.00001210 0.00002134 0.00000345 -0.25619190 -0.64247950 -1.68757761
76 1 0.48359749 21.29643614 35.49306197 35.46407428 0.06858610 0.04279116 0.99672708 0.00001307 -0.00000633 0.00001959 0.21153227 1.11429728 -1.06078580
77 1 2.19291308 21.29106130 35.49001790 7.06766176 0.05419715 0.02754796 0.99815018 -0.00001357 -0.00001419 0.00001460 0.49662558 -0.77387741 -1.39376587
78 1 3.46918844 21.29514197 35.49192302 14.16713785 -0.15721016 -0.03239344 0.98703375 -0.00001708 -0.00001166 -0.00000010 0.07086146 -2.10355510 1.64880492
79 1 1.14765633 21.29775018 35.49580948 21.26672931 0.11030623 0.01512242 0.99378260 0.00000566 -0.00000320 -0.00000446 -0.07201641 0.18736813 -0.71612109
80 1 1.43955638 21.29592194 0.00110232 28.36567088 -0.08358643 -0.01007854 0.99644956 0.00002480 0.00000024 0.00000798 0.03260603 -1.05688226 -0.87008870
81 1 2.88657506 21.29642100 7.09719704 35.46426004 0.06506963 0.03391968 0.99730407 0.00002516 0.00000449 0.00000240 0.15242590 0.94784172 -0.78401220
82 1 0.68037142 21.29145719 7.09401188 7.06794585 0.04432799 0.02967255 0.99857627 -0.00000647 0.00001217 -0.00000296 0.55794355 -0.65383139 -2.15479943
83 1 0.27887073 21.29627891 7.09601911 14.16688536 -0.14931323 -0.01395622 0.98869145 -0.00001179 0.00001590 -0.00000568 0.43340636 -1.68180997 0.22817168
84 1 0.52168046 21.29813951 7.09976105 21.26619238 0.10129539 -0.04097897 0.99401206 0.00001530 0.00000957 -0.00000205 0.16209269 0.76363611 -0.89135237
85 1 3.72982070 21.29628621 7.09998566 28.36555798 -0.06308229 0.02071250 0.99779337 0.00003890 0.00000275 0.00000284 -0.13956397 -1.05135315 -1.59712844
86 1 1.68345393 21.29670153 14.19566802 35.46451631 0.07264890 0.06607289 0.99516657 0.00001731 0.00002625 -0.00002206 0.56877194 0.55197602 -0.11795912
87 1 2.94051206 21.29131319 14.19267247 7.06847477 0.07060192 0.04252894 0.99659754 -0.00001559 0.00002389 -0.00002515 -0.29861680 -1.08453491 -1.92712361
88 1 1.78856769 21.29612255 14.19627872 14.16730913 -0.12429962 -0.04051883 0.99141708 -0.00001919 0.00002115 -0.00001096 -0.48442574 -0.57046206 -0.64816788
89 1 1.57132328 21.29812881 14.19836289 21.26620930 0.08149869 -0.05730668 0.99502458 0.00000920 0.00002165 0.00000093 0.46268360 1.19747139 -0.69867034
90 1 0.86567772 21.29664727 14.19851442 28.36557289 -0.06217274 0.01029364 0.99801232 0.00003258 0.00002498 -0.00000615 -0.17988543 -0.85710085 -1.90395976
91 1 1.20325867 21.29622393 21.29385837 35.46437014 0.10401426 0.11090442 0.98837303 0.00000078 0.00002882 -0.00001981 0.03322765 -0.03964464 0.39806703
92 1 0.91635662 21.29080231 21.29147262 7.06829467 0.09249413 0.03536740 0.99508491 -0.00002798 0.00000487 -0.00002118 -0.54780497 -0.80394648 -1.32019244
93 1 4.56845197 21.29550206 21.29618780 14.16770117 -0.13536938 -0.07652419 0.98783560 -0.00002930 -0.00000294 -0.00000862 -0.59300123 -0.29436315 0.41284141
94 1 0.89325798 21.29792236 21.29746638 21.26683475 0.07335885 -0.00556757 0.99729007 -0.00000463 0.00001628 0.00000012 0.68086152 0.58382690 -0.64119712
95 1 0.87617712 21.29654381 21.29745228 28.36553939 -0.08739019 -0.03782691 0.99545571 0.00001436 0.00003584 -0.00000640 0.10999762 -0.28553256 -1.26410381
96 1 1.07583162 21.29586905 28.39287975 35.46413091 0.08215024 0.09073879 0.99248064 -0.00000165 0.00000925 0.00000578 0.65684109 0.41959194 -0.65380510
97 1 2.85469395 21.29060552 28.39074764 7.06787935 0.08335092 0.02318572 0.99625049 -0.00002678 -0.00001848 0.00000321 -0.16862611 -0.41340299 -0.96415540
98 1 0.90593121 21.29458721 28.39421134 14.16755260 -0.14405772 -0.07458051 0.98675484 -0.00002798 -0.00002301 -0.00000198 -0.78777559 -1.09386113 1.55033412
99 1 0.89657296 21.29754401 28.39667741 21.26705629 0.09143748 0.04248191 0.99490425 -0.00000654 0.00000108 -0.00000310 0.42067535 -0.23073271 -0.54453260
100 1 1.14945274 21.29607208 28.39680157 28.36566637 -0.09817358 -0.05905326 0.99341565 0.00001004 0.00002102 0.00000235 0.06108570 0.03609778 -0.43923330
101 1 0.95952362 28.39582803 35.49398814 35.46417158 0.08419029 0.08309806 0.99297870 0.00001204 -0.00001292 0.00002099 0.41116897 1.16627719 0.11863196
102 1 2.11727468 28.39006555 35.48960899 7.06765742 0.06099108 0.00536659 0.99812388 -0.00001909 -0.00001822 0.00002126 0.22222937 -0.45233223 -1.23331694
103 1 4.28358389 28.39436219 35.49353422 14.16713231 -0.16534561 -0.01684776 0.98609177 -0.00002474 -0.00001552 0.00000772 0.33827894 -2.38479110 1.72684264
104 1 1.73926001 28.39675793 0.00148074 21.26679089 0.12762861 0.02133427 0.99159255 0.00000082 -0.00001028 -0.00000130 0.25658872 0.78302933 0.46386068
105 1 0.93674268 28.39467677 0.00139502 28.36572842 -0.09725477 -0.05936223 0.99348761 0.00002374 -0.00000887 0.00000711 -0.43270116 -0.46619131 0.08321434
106 1 0.54037929 28.39688836 7.09813323 35.46446886 0.08020121 0.08871726 0.99282275 -0.00000089 -0.00000178 0.00000331 0.80292700 0.79497404 0.58928449
107 1 1.96865526 28.39066238 7.09350058 7.06792382 0.04809714 -0.01453998 0.99873683 -0.00003250 0.00000942 0.00000309 0.56850202 0.03613656 -1.96637854
108 1 0.94358178 28.39540671 7.09813714 14.16684714 -0.13390629 -0.03688267 0.99030741 -0.00003652 0.00001211 0.00000146 -0.32709532 -1.03829040 -0.02545741
109 1 0.34742097 28.39681097 7.10113115 21.26630065 0.13557437 0.00572604 0.99075063 -0.00000956 0.00000146 0.00000013 -0.16356115 0.47976521 0.38478182
110 1 1.32877381 28.39515895 7.10066620 28.36575196 -0.08851410 -0.02566276 0.99574428 0.00001288 -0.00000728 0.00000148 -0.22741010 -0.81532389 -0.66379717
111 1 0.43173227 28.39613514 14.19567398 35.46458513 0.07714803 0.08700931 0.99321577 0.00000558 0.00002781 -0.00002128 0.42283861 0.47072554 0.05054357
112 1 1.79199580 28.39027269 14.19236011 7.06842316 0.06527252 -0.01808948 0.99770350 -0.00002702 0.00002471 -0.00001892 -0.00611410 0.26936517 -2.12311966
113 1 1.58749261 28.39482567 14.19757358 14.16733931 -0.11690029 -0.06595615 0.99095111 -0.00003075 0.00002057 -0.00000341 -0.51926166 -0.16376747 -0.51503325
114 1 0.71755097 28.39700851 14.19986078 21.26632182 0.07528574 -0.01218137 0.99708759 -0.00000308 0.00002144 0.00000352 0.51186790 0.95501174 -1.13544595
115 1 0.43064340 28.39563723 14.19889515 28.36558032 -0.05646679 0.00195643 0.99840256 0.00002030 0.00002640 -0.00000761 -0.20007428 -0.91242450 -1.65255351
116 1 1.04953204 28.39490996 21.29385541 35.46442232 0.07925692 0.10254671 0.99156569 0.00002220 0.00003487 -0.00001867 0.28747379 -0.31499730 -0.43996643
117 1 1.20660259 28.38966549 21.29124709 7.06822054 0.08843211 -0.00354610 0.99607589 -0.00001047 0.00000656 -0.00001443 -0.50412778 -0.13933351 -1.60508834
118 1 0.74546939 28.39392466 21.29636254 14.16761288 -0.13569331 -0.08395877 0.98718704 -0.00001569 -0.00000144 -0.00000032 -0.34977238 -0.16369221 0.34732326
119 1 0.70292324 28.39733955 21.29828465 21.26682819 0.03142170 0.01518744 0.99939082 0.00001121 0.00002203 0.00000394 1.42301641 0.09324594 -1.38390891
120 1 1.50939877 28.39546248 21.29730109 28.36546202 -0.02658049 -0.01824794 0.99948011 0.00003547 0.00004493 -0.00000753 -1.04750302 -0.46608345 -1.92988353
121 1 0.87681808 28.39444832 28.39332646 35.46407124 0.08852814 0.09855629 0.99118587 0.00002593 0.00000975 0.00000729 0.05941069 0.32306985 -0.75224078
122 1 1.40501010 28.38945253 28.39041515 7.06782453 0.07832477 0.01318699 0.99684068 -0.00000554 -0.00001986 0.00001031 -0.02165818 -0.45719674 -0.98707812
123 1 1.52209120 28.39351997 28.39460006 14.16748035 -0.16954927 -0.07304443 0.98281105 -0.00001189 -0.00002377 0.00000657 0.21818297 -0.67872672 2.14970720
124 1 3.06607875 28.39703718 28.39697958 21.26700498 0.07375929 0.03010148 0.99682168 0.00001341 0.00000215 0.00000103 0.66825525 0.20404072 -1.09058686
125 1 1.06243041 28.39486068 28.39657319 28.36554514 -0.06354913 -0.05678017 0.99636214 0.00003722 0.00002291 0.00000160 -0.50170165 -0.05300845 -0.84235736
126 1 0.94052577 3.54897264 35.49152918 35.46360625 0.03140222 0.11074650 0.99335246 0.00001078 0.00001070 0.00002564 1.44806444 0.23481729 -0.75471014
127 1 0.87172165 3.54395578 35.48941471 7.06763917 0.08449982 -0.06381112 0.99437816 -0.00002260 0.00000142 0.00002739 -0.13552676 0.78684091 -0.75495565
128 1 1.10331388 3.54700533 -0.00091331 14.16700248 -0.14369260 -0.04651847 0.98852844 -0.00001893 0.00000001 0.00001096 -0.05883366 -0.91199122 1.04109619
129 1 2.38220862 3.54989049 0.00099603 21.26615885 0.09642714 0.01797299 0.99517776 0.00001521 0.00000862 -0.00000120 0.21311677 1.04285479 -0.99216812
130 1 0.47558473 3.54811958 35.49500971 28.36508791 -0.05691651 -0.03222218 0.99785883 0.00003425 0.00001561 0.00000754 -0.89628361 -0.50325783 -2.03293204
131 1 2.78095444 3.55116206 7.09702298 35.46419139 0.10200034 0.14896750 0.98356729 -0.00001367 -0.00000979 0.00000698 0.81818271 0.80201709 2.23391762
132 1 3.92292020 3.54406765 7.09309831 7.06808977 0.07005859 -0.05570746 0.99598618 -0.00004061 -0.00000093 0.00000839 0.05144423 0.25970736 -1.34657306
133 1 0.95852335 3.54813251 7.09882202 14.16700469 -0.12513191 -0.06461518 0.99003378 -0.00003537 -0.00000008 0.00000382 -0.42341596 -0.86404681 0.24697337
134 1 3.77365695 3.54963604 7.09969518 21.26597880 0.11264748 0.07198554 0.99102403 -0.00000730 -0.00000777 -0.00000062 0.29944905 0.46391679 0.16944189
135 1 1.41302391 3.54976778 7.09913972 28.36527907 -0.11535859 -0.07379805 0.99057874 0.00000642 -0.00001383 0.00000123 -0.08570625 -0.42066948 -0.16956978
136 1 0.85544700 3.54985747 14.19617057 35.46459378 0.14805051 0.16919342 0.97439963 -0.00001018 -0.00002149 -0.00001734 1.09826964 0.81258901 3.59344821
137 1 1.76992879 3.54350055 14.19269931 7.06871394 0.06118313 -0.05603130 0.99655262 -0.00003540 -0.00002150 -0.00001348 0.04582596 0.55861318 -1.54116215
138 1 2.82368902 3.54909607 14.19926817 14.16726884 -0.14384984 -0.09622149 0.98491048 -0.00003100 -0.00002273 -0.00000066 -0.17139474 -0.28924789 0.89877767
139 1 1.88697682 3.55023651 14.19851713 21.26593291 0.10169739 0.10425288 0.98933765 -0.00000500 -0.00002302 0.00000323 0.88138710 -0.23540860 0.36161462
140 1 0.52317633 3.54984496 14.19810982 28.36502358 -0.08811717 -0.08699433 0.99230406 0.00000833 -0.00002220 -0.00000700 -0.93343516 -0.28169098 -0.52441104
141 1 1.46028773 3.54737875 21.29386481 35.46431071 0.10365961 0.13087965 0.98596410 0.00001608 -0.00000865 -0.00001371 0.63609514 -0.14815153 0.40990293
142 1 7.36113490 3.54317380 21.29214045 7.06853940 0.05614539 -0.04581376 0.99737094 -0.00001427 -0.00003190 -0.00000800 0.39218063 0.25696723 -1.52222689
143 1 4.41235470 3.54864519 21.29825667 14.16741300 -0.15147019 -0.08133346 0.98510997 -0.00001229 -0.00003696 0.00000352 -0.45886586 -0.83495570 1.14001547
144 1 1.87199576 3.55119654 21.29789268 21.26618910 0.06788195 0.06109398 0.99582105 0.00001875 -0.00001661 0.00000466 1.18986566 0.17215037 -1.09698220
145 1 0.30027050 3.54867878 21.29701243 28.36472698 -0.01956614 -0.05660980 0.99820464 0.00003720 0.00000151 -0.00000594 -1.85540869 -0.00298302 -2.16499103
146 1 5.47365909 3.54712582 28.39219576 35.46372663 0.05279522 0.10005695 0.99358003 0.00002938 0.00001132 0.00001277 0.42986622 0.05252865 -1.37345097
147 1 0.97048510 3.54331453 28.39105013 7.06772807 0.06857837 -0.04941495 0.99642118 -0.00000637 -0.00001760 0.00001716 0.32917428 0.44480437 -1.35828853
148 1 0.86802918 3.54749773 28.39601598 14.16712213 -0.15847805 -0.04443553 0.98636210 -0.00000471 -0.00002306 0.00001071 0.01257625 -1.42645321 1.14353062
149 1 1.55748912 3.55085510 28.39715137 21.26631890 0.08006221 0.01427702 0.99668762 0.00003136 0.00000311 0.00000203 0.22912486 0.76987765 -1.48458609
150 1 0.74710014 3.54774392 28.39607320 28.36482733 -0.01020007 -0.02098532 0.99972775 0.00005347 0.00002515 0.00000304 -1.41940935 -0.50301136 -2.48209442
151 1 1.47450479 10.64770575 35.49109793 35.46372786 0.02310159 0.07132167 0.99718581 0.00001221 0.00001819 0.00002412 0.87204300 0.51546362 -1.45154095
152 1 0.92957244 10.64297590 35.49036651 7.06759594 0.07685372 -0.03865994 0.99629258 -0.00001701 0.00000562 0.00002063 0.01395268 0.52982525 -1.29076142
153 1 3.31539949 10.64660298 -0.00054060 14.16695607 -0.13538478 -0.06328776 0.98876975 -0.00001125 0.00000377 0.00000329 -0.02965568 -0.76305843 0.45200844
154 1 1.00199112 10.64906583 0.00088010 21.26623063 0.07406088 0.01053972 0.99719802 0.00002035 0.00001595 -0.00000430 0.57839761 0.47649523 -1.81747555
155 1 1.30844566 10.64737239 35.49465963 28.36517460 -0.04344034 0.01055510 0.99900026 0.00003579 0.00002539 0.00000842 -0.47086746 -1.02756195 -2.39570001
156 1 0.52735068 10.64860023 7.09611717 35.46414290 0.06915669 0.07393906 0.99486198 0.00001201 -0.00000315 0.00000596 0.45280170 1.35306710 -0.22632649
157 1 3.20272313 10.64303751 7.09398458 7.06817048 0.06075752 -0.01863027 0.99797868 -0.00001474 0.00000195 0.00000212 0.11750027 0.08771704 -1.78938954
158 1 1.17802244 10.64728553 7.09762268 14.16693744 -0.10830787 -0.04141402 0.99325439 -0.00001043 0.00000387 -0.00000319 -0.57519018 -1.07202098 -0.53695061
159 1 1.32187807 10.64900748 7.09864299 21.26575558 0.07131323 0.02378771 0.99717028 0.00001776 0.00000064 -0.00000269 0.72199143 0.40026971 -1.62164689
160 1 0.39882180 10.64861307 7.09809845 28.36513399 -0.08534448 -0.01878822 0.99617434 0.00003232 -0.00000366 0.00000277 0.34078333 -0.86523168 -2.21252377
161 1 9.51171284 10.64817297 14.19560081 35.46447759 0.13207306 0.13634309 0.98181835 0.00000120 -0.00002328 -0.00001826 0.89135461 1.01170230 2.18068256
162 1 1.28527760 10.64263171 14.19280241 7.06865654 0.05861315 -0.00964071 0.99823422 -0.00002391 -0.00002248 -0.00001984 -0.18343436 -0.09154965 -1.93585946
163 1 0.58797645 10.64804798 14.19706337 14.16722138 -0.12788055 -0.05448550 0.99029182 -0.00001958 -0.00002239 -0.00000813 -0.62197368 -0.94785232 -0.32320576
164 1 0.75192280 10.64946151 14.19668216 21.26581409 0.08809470 0.05302657 0.99469971 0.00000713 -0.00002305 0.00000060 1.02233256 0.21396387 -0.69711666
165 1 0.80765640 10.64881667 14.19745732 28.36510645 -0.10470155 -0.08328759 0.99100997 0.00002030 -0.00002372 -0.00000548 -0.38522101 0.00814350 -0.56878428
166 1 1.33032056 10.64612806 21.29321778 35.46409861 0.12745848 0.14088331 0.98178726 -0.00000492 -0.00001458 -0.00001499 0.66743360 0.31560566 0.99653983
167 1 0.69195010 10.64222987 21.29208567 7.06830889 0.05755769 -0.01509691 0.99822803 -0.00003188 -0.00003358 -0.00001485 0.46605505 -0.16755104 -1.74442855
168 1 2.10578083 10.64785277 21.29715429 14.16754110 -0.17376839 -0.08705657 0.98093104 -0.00002583 -0.00003846 -0.00000465 -0.05420086 -0.76224878 1.93060528
169 1 0.51206145 10.64967549 21.29638226 21.26628952 0.11534874 0.05102508 0.99201366 0.00000323 -0.00002232 0.00000089 0.16790132 0.43704831 -0.02041798
170 1 0.53556040 10.64776510 21.29688456 28.36493361 -0.07671132 -0.07437540 0.99427545 0.00001630 -0.00000741 -0.00000489 -1.05981127 -0.27942624 -1.26177724
171 1 2.31335142 10.64643926 28.39181154 35.46383991 0.05293808 0.10223831 0.99335033 0.00000137 0.00001036 0.00001092 0.66172906 -0.02735714 -1.00828929
172 1 0.57204811 10.64221746 28.39154082 7.06754966 0.08417117 -0.03522867 0.99582838 -0.00002768 -0.00001639 0.00000996 -0.33855060 0.34828903 -1.25260657
173 1 3.78863974 10.64705896 28.39650565 14.16719411 -0.17713208 -0.09058297 0.98000967 -0.00002080 -0.00002249 0.00000234 0.34276634 -0.62277302 2.06064695
174 1 1.17470037 10.64951657 28.39696959 21.26658333 0.10264386 0.01975235 0.99452204 0.00001110 0.00000156 -0.00000207 0.03674432 0.77307374 -0.98116244
175 1 1.89992707 10.64701468 28.39614623 28.36514160 -0.04685477 -0.01908495 0.99871938 0.00002545 0.00002264 0.00000369 -0.52358548 -0.66399246 -2.21559678
176 1 1.80991646 17.74674632 35.49218141 35.46392853 0.05381013 0.04255685 0.99764392 0.00001310 0.00000341 0.00002053 0.23963293 0.82115485 -1.44112835
177 1 1.61731698 17.74170373 35.49024018 7.06758214 0.06093462 0.01978917 0.99794557 -0.00001301 -0.00000677 0.00001440 0.29063526 -0.69625548 -1.41886971
178 1 0.60901034 17.74557497 35.49229376 14.16714941 -0.15459877 -0.06837124 0.98560874 -0.00001294 -0.00000569 -0.00000147 0.05951234 -0.89923743 1.72238474
179 1 2.65435613 17.74821140 35.49581864 21.26663237 0.09234827 0.01200211 0.99565443 0.00001166 0.00000479 -0.00000538 0.10668026 0.22616005 -1.30078516
180 1 1.22560988 17.74649386 35.49553924 28.36554433 -0.06826874 0.01266448 0.99758658 0.00002847 0.00001081 0.00000839 -0.01098445 -1.33749691 -1.43452109
181 1 1.23861105 17.74677648 7.09667534 35.46418116 0.06254585 0.02730805 0.99766843 0.00002933 0.00000433 0.00000323 0.15900996 1.31212834 -0.84173291
182 1 1.37371552 17.74202552 7.09418443 7.06798023 0.05002933 0.03165814 0.99824588 -0.00000104 0.00000990 -0.00000331 0.36551553 -0.74360282 -1.98150694
183 1 0.75783743 17.74685026 7.09605760 14.16686038 -0.13858226 -0.02412559 0.99005703 -0.00000372 0.00001335 -0.00000709 0.25892304 -1.38363327 -0.16951974
184 1 0.80295129 17.74864366 7.09915372 21.26609706 0.08236825 -0.03313956 0.99605082 0.00002396 0.00000935 -0.00000287 0.43218192 0.76545923 -1.27915885
185 1 1.97154018 17.74705548 7.09916588 28.36543820 -0.06215952 0.02804851 0.99767203 0.00004512 0.00000402 0.00000323 0.09347527 -1.40398405 -1.92375630
186 1 3.09679583 17.74717251 14.19577745 35.46452068 0.08527161 0.07559683 0.99348572 0.00001588 0.00001030 -0.00002115 0.77947106 0.75867231 0.30596948
187 1 2.12578797 17.74185876 14.19289441 7.06853279 0.06842349 0.04495730 0.99664290 -0.00001469 0.00000927 -0.00002547 -0.27091026 -1.22400159 -1.75905958
188 1 0.30114576 17.74696822 14.19610756 14.16718280 -0.12599581 -0.02811448 0.99163231 -0.00001573 0.00000786 -0.00001242 -0.36157420 -1.10819885 -0.67452558
189 1 0.88729740 17.74874700 14.19740317 21.26606856 0.08212181 -0.03989644 0.99582342 0.00001237 0.00000787 0.00000004 0.76823021 1.03717079 -0.85171010
190 1 1.75719755 17.74732229 14.19802728 28.36547345 -0.07525009 -0.01361988 0.99707167 0.00003250 0.00000943 -0.00000545 -0.15379691 -0.58185189 -1.95743746
191 1 1.36881089 17.74632128 21.29356607 35.46425130 0.11501553 0.12060782 0.98601480 -0.00000744 0.00001363 -0.00001870 0.34918043 0.19034169 0.71838463