0.01304584 0.05756557 -0.04290802 3.56173278 0.05125723 -0.02046762 0.02885289 3.51682452 -0.00717211 3.53379229 3.54530413 0.00265597 -0.00703850 -0.04953149 3.50870252 3.51746046 0.04559021 3.54444648 0.02899796 3.51736777 3.47518575 3.50708428 3.56727550 3.49866016 -0.04095345 1.78241816 1.79920566 3.57468791 1.76973759 1.82307649 0.01151774 5.34335554 1.80600741 3.53847907 5.32312260 1.81569224 0.03767505 1.81476687 5.37048360 3.56966228 1.81582032 5.38588338 -0.01552374 5.32110700 5.34287046 3.51652982 5.31684928 5.35537387 1.80423489 0.01679644 1.77242053 5.39250552 -0.05262846 1.84548051 1.74787976 3.57352876 1.84158973 5.31774136 3.53204366 1.81247189 1.78508037 0.00399503 5.32567778 5.35973695 0.02600538 5.39550677 1.80912972 3.58809816 5.39530615 5.29411544 3.57886978 5.36889177 1.77285207 1.76232339 -0.04675722 5.36913038 1.71655772 -0.00720446 1.78129263 5.36306119 0.00714014 5.34961439 5.28706700 -0.02415789 1.81574880 1.80820199 3.56025900 5.28949353 1.78730855 3.48640326 1.76482343 5.35568445 3.50596110 5.31888951 5.36294055 3.52925263 -0.18435072 -0.12654398 0.08810672 3.36433764 -0.13285131 0.11054614 -0.16854232 3.33271640 0.12384181 3.33639676 3.36119554 0.13366979 0.19035702 0.13457759 3.37768834 3.71485588 0.22969898 3.41343231 0.22639327 3.70147655 3.34417113 3.70447989 3.75138432 3.36764569 -0.23834948 1.59830871 1.93022014 3.37729182 1.58562812 1.95409080 -0.18587911 5.15924558 1.93702220 3.34108367 5.13901340 1.94670691 0.23507085 1.99887562 5.23946911 3.76705806 1.99992877 5.25486890 0.18187080 5.50521494 5.21185650 3.71392492 5.50095750 5.22435980 1.60684022 -0.16731151 1.90343471 5.19510828 -0.23673869 1.97649572 1.55048217 3.38941774 1.97260563 5.12034607 3.34793545 1.94348570 1.98247489 0.18810305 5.19466438 5.55713236 0.21011453 5.26449273 2.00652621 3.77220770 5.26429137 5.49150992 3.76297776 5.23787834 1.57545618 1.57821409 0.08425760 5.17173455 1.53244855 0.12380984 1.58389747 5.17895283 0.13815379 5.15222051 5.10295952 0.10685511 2.01314426 1.99231090 3.42924498 5.48688966 1.97141768 3.35538891 1.96222010 5.53979394 3.37494649 5.51628411 5.54704837 3.39823867
0.01463747 0.09051303 -0.04881021 3.59749898 0.00138825 -0.05700156 -0.01637259 3.55428692 -0.00257186 3.55464945 3.53035908 -0.01171294 0.02719108 -0.03326618 3.54466879 3.52406439 0.06139784 3.55616671 -0.00914018 3.52715133 3.55169384 3.56481454 3.52368473 3.47275906 -0.01367109 1.74574186 1.83419513 3.58212427 1.76188247 1.81703644 0.03023668 5.25549124 1.78950837 3.53500470 5.30317959 1.82588696 0.00912877 1.80630242 5.38802837 3.52048498 1.77934457 5.37171914 -0.00400738 5.37071561 5.38712503 3.56206301 5.39844931 5.35532316 1.77095588 -0.05160894 1.79178472 5.32600264 -0.07311066 1.79440833 1.78417248 3.51358621 1.80850016 5.30811371 3.50439590 1.77199850 1.80524825 0.01219962 5.37281864 5.29399763 -0.00124937 5.38853520 1.82265311 3.56048336 5.36048399 5.32002954 3.54037485 5.31281328 1.77887882 1.77123680 -0.04408314 5.39427199 1.76772795 -0.03954887 1.78665414 5.32168292 -0.03198566 5.31997457 5.35510034 -0.03853222 1.75660325 1.73720709 3.53979213 5.36008329 1.76223405 3.53362272 1.72972575 5.28296697 3.52065858 5.34469355 5.30167616 3.48652509 0.20379215 0.31630251 0.00821712 3.78665370 0.22717786 0.00002570 0.17278197 3.78007633 0.05445535 3.74380355 3.75614804 0.04531424 -0.16196372 -0.25905619 3.48764154 3.33491010 -0.16439127 3.49913955 -0.19829449 3.30136194 3.49466655 3.37566031 3.29789540 3.41573184 0.17548304 1.97153078 1.89122235 3.77127871 1.98767178 1.87406378 0.21939118 5.48128068 1.84653573 3.72415891 5.52896918 1.88291425 -0.18002551 1.58051300 5.33100097 3.33133049 1.55355498 5.31469188 -0.19316162 5.14492636 5.33009778 3.37290817 5.17265958 5.29829575 1.96011037 0.17418055 1.84881200 5.51515711 0.15267879 1.85143580 1.97332688 3.73937540 1.86552733 5.49726810 3.73018521 1.82902579 1.61609361 -0.21359011 5.31579126 5.10484279 -0.22703932 5.33150779 1.63349851 3.33469361 5.30345675 5.13087532 3.31458586 5.25578610 1.96803336 1.99702661 0.01294439 5.58342678 1.99351755 0.01747838 1.97580838 5.54747198 0.02504155 5.50912919 5.58088978 0.01849516 1.56744890 1.51141754 3.48276465 5.17092883 1.53644457 3.47659543 1.54057127 5.05717742 3.46363127 5.15553889 5.07588711 3.42949795
-0.02899750 -0.04770028 -0.02977811 3.52293800 0.01611910 -0.05312588 0.00152590 3.53586419 -0.05289452 3.56411300 3.57913505 -0.04719229 0.01832479 0.04311908 3.54368527 3.55366472 0.00481628 3.55623100 0.00284050 3.59829368 3.49821291 3.57560730 3.55596214 3.49769262 -0.01743055 1.74466479 1.77232996 3.58320215 1.75694759 1.79338282 0.00913661 5.36105212 1.81972915 3.56316105 5.36018940 1.78873920 -0.01052325 1.74988250 5.32231272 3.59062943 1.75745928 5.36553365 -0.02481865 5.34642834 5.37043545 3.58350347 5.36846827 5.33710204 1.83429986 0.02023763 1.78098347 5.32341410 0.01242794 1.78085223 1.75199375 3.49824897 1.78070133 5.30057590 3.55640844 1.81871535 1.76262056 0.03789569 5.34543090 5.34331865 0.00988204 5.39319795 1.78609848 3.55107405 5.31999065 5.29011901 3.58791190 5.31658964 1.75696710 1.83785192 0.01634932 5.31848809 1.79356113 -0.02936327 1.79724986 5.36758741 -0.04647389 5.31504547 5.30456897 -0.03538685 1.77847895 1.79219719 3.54676192 5.32381074 1.73824043 3.54000294 1.77118164 5.31882424 3.49689463 5.30702690 5.25407345 3.48327931 0.09596569 0.09796317 0.20076918 3.64790091 0.16178209 0.17741982 0.12648814 3.68152591 0.17764722 3.68907557 3.72479690 0.18335156 -0.10663918 -0.10254506 3.31313726 3.42870087 -0.14084851 3.32568303 -0.12212133 3.45263086 3.26766763 3.45064277 3.41029905 3.26714574 0.10753422 1.89032936 2.00287841 3.70816626 1.90261190 2.02393037 0.13409866 5.50671402 2.05027353 3.68812207 5.50584975 2.01928014 -0.13548819 1.60421784 5.09176252 3.46566354 1.61179327 5.13498125 -0.14977977 5.20076754 5.13989174 3.45854139 5.22280739 5.10655812 1.95926367 0.16590177 2.01153068 5.44837386 0.15808778 2.01139325 1.87695709 3.64391256 2.01124858 5.42553933 3.70207134 2.04925991 1.63765553 -0.10776944 5.11488230 5.21835604 -0.13577996 5.16265392 1.66113425 3.40540913 5.08944175 5.16515617 3.44224851 5.08604307 1.88193288 1.98351768 0.24690146 5.44345120 1.93922444 0.20118445 1.92221124 5.51324828 0.18406935 5.44000515 5.45022736 0.19515239 1.65351156 1.64652949 3.31620878 5.19884612 1.59257573 3.30945487 1.64621953 5.17316174 3.26634978 5.18206497 5.10841162 3.25273584
0.04243888 -0.00105599 -0.01055529 3.51744681 0.05419264 -0.03357966 0.05222747 3.51048535 -0.07770420 3.53369555 3.53931827 0.02172352 0.03116293 -0.00544810 3.52055613 3.58032568 -0.00500594 3.52819036 0.02398862 3.55225684 3.51376237 3.52214451 3.53207059 3.52539399 0.03372079 1.75987494 1.79867449 3.54242602 1.75511024 1.89870451 0.00980806 5.29136212 1.81327614 3.52969844 5.36916207 1.79297740 -0.00512651 1.79659944 5.35969242 3.50182173 1.77169449 5.36466876 0.04229908 5.32250491 5.31913319 3.51186992 5.30421438 5.35719123 1.79423269 -0.04126399 1.77654550 5.34475137 0.03071728 1.83357623 1.72747209 3.53472192 1.79771323 5.33736957 3.51825598 1.74370077 1.76841548 -0.00258427 5.35253083 5.35527620 0.05987884 5.37763694 1.74219478 3.54053093 5.39403061 5.38110135 3.52902200 5.33425822 1.76311807 1.80657697 -0.03183397 5.34885313 1.79338801 -0.04636927 1.84045777 5.32119248 -0.05371533 5.29791275 5.32392539 -0.04592625 1.80334668 1.78437316 3.52792259 5.31269764 1.75249543 3.53136689 1.79794709 5.34340785 3.51459449 5.31917672 5.29026550 3.51769905 0.22066907 0.04802825 -0.24685614 3.69567675 0.10327686 -0.26988040 0.23045751 3.55956958 -0.31400487 3.71192571 3.58840243 -0.21457721 -0.14706727 -0.05453231 3.75685697 3.40209568 -0.05409012 3.76449099 -0.15424171 3.50317247 3.75006322 3.34391450 3.48298635 3.76169481 0.21195093 1.80895913 1.56237372 3.72065588 1.80419414 1.66240392 0.18803814 5.34044637 1.57697534 3.70792862 5.41824617 1.55667648 -0.18335653 1.74751514 5.59599288 3.32359156 1.72261042 5.60096959 -0.13593118 5.27342062 5.55543407 3.33363966 5.25513030 5.59349215 1.97246275 0.00782020 1.54024486 5.52298142 0.07980154 1.59727563 1.90570228 3.58380639 1.56141249 5.51559993 3.56734019 1.50739965 1.59018545 -0.05166843 5.58883156 5.17704597 0.01079465 5.61393785 1.56396486 3.49144637 5.63033103 5.20287112 3.47993783 5.57055924 1.94134799 1.85566113 -0.26813445 5.52708324 1.84247225 -0.28266999 2.01868784 5.37027666 -0.29001606 5.47614304 5.37300968 -0.28222729 1.62511661 1.73528901 3.76422332 5.13446750 1.70341128 3.76766772 1.61971701 5.29432366 3.75089525 5.14094654 5.24118132 3.75399996
0.02164576 0.01108324 -0.02547269 3.57074990 -0.03600449 -0.01255561 0.01952336 3.55176338 -0.07377313 3.59563761 3.53264240 -0.08281833 -0.04235274 0.01925027 3.54021167 3.57416154 0.01155797 3.48141810 0.00209093 3.51663797 3.52717295 3.53123713 3.57052865 3.52113012 0.01967150 1.80404222 1.82420711 3.51076758 1.76397134 1.80400646 0.05894633 5.30359386 1.82216692 3.53462244 5.32693514 1.79885022 0.00415293 1.79367281 5.39636961 3.53303902 1.72705134 5.34761740 -0.00531081 5.32604447 5.34475095 3.53441353 5.32092808 5.33570833 1.75234884 0.02374695 1.77795836 5.27628557 0.01982323 1.83694386 1.81585642 3.48303952 1.79254692 5.31094169 3.58173446 1.82805668 1.74103106 -0.02970817 5.36059985 5.28412888 -0.03293477 5.39109428 1.78209059 3.59644060 5.38665994 5.28952253 3.52166948 5.36617613 1.72833065 1.75975190 -0.04994167 5.38234441 1.75227371 -0.06199064 1.84472793 5.29465635 -0.03884461 5.34770462 5.32338322 -0.08423976 1.80403382 1.81212204 3.53991233 5.31249472 1.75954240 3.54382776 1.82032046 5.38283503 3.53323760 5.32082627 5.37817525 3.51903747 0.23055137 0.22275955 0.01411743 3.77965494 0.17567145 0.02703385 0.22842898 3.76343985 -0.03418274 3.80454280 3.74431849 -0.04322835 -0.25125817 -0.19242636 3.50062152 3.36525629 -0.20011845 3.44182782 -0.20681473 3.30496132 3.48758305 3.32233173 3.35885204 3.48153984 0.22857690 2.01571861 1.86379713 3.71967285 1.97564786 1.84359645 0.26785167 5.51527028 1.86175715 3.74352736 5.53861111 1.83844029 -0.20475225 1.58199616 5.35677964 3.32413371 1.51537489 5.30802736 -0.21421611 5.11436768 5.30516076 3.32550842 5.10925190 5.29611825 1.96125423 0.23542327 1.81754847 5.48519075 0.23149926 1.87653384 2.02476149 3.69471617 1.83213699 5.51984679 3.79341114 1.86764740 1.53212557 -0.24138462 5.32100972 5.07522369 -0.24461093 5.35150406 1.57318518 3.38476430 5.34707013 5.08061694 3.30999324 5.32658575 1.93723594 1.97142820 -0.01035159 5.59124990 1.96394989 -0.02240079 2.05363290 5.50633284 0.00074583 5.55660957 5.53505945 -0.04464974 1.59512837 1.60044558 3.50032221 5.10358929 1.54786586 3.50423752 1.61141489 5.17115864 3.49364790 5.11192093 5.16649893 3.47944743
-0.01783602 -0.01408532 0.00471422 3.58661289 0.03191116 -0.06917092 -0.01993139 3.52989937 -0.05855615 3.56575196 3.52579851 -0.01578569 -0.00172042 0.04680694 3.55600898 3.58296670 -0.00225602 3.50607917 0.01928497 3.55216192 3.47896394 3.57772136 3.56564081 3.50207170 -0.00294230 1.77436857 1.86753550 3.51955972 1.75661040 1.80547694 -0.02481790 5.36411646 1.75849808 3.48464561 5.29708844 1.78326921 -0.04605666 1.79352706 5.32004356 3.55166878 1.75256755 5.33459208 -0.03198831 5.32868865 5.36718930 3.55253007 5.36247122 5.35828610 1.79969235 0.01439699 1.80453357 5.32426250 -0.00704307 1.78952331 1.78938780 3.57160950 1.84081283 5.31092301 3.51800363 1.79159338 1.79629933 -0.02354178 5.32629942 5.33679496 -0.04198940 5.36068792 1.71763019 3.56992139 5.37689802 5.33567985 3.49727042 5.35090617 1.77659783 1.77884068 -0.06957723 5.29367670 1.81883028 -0.04880313 1.79195012 5.31657287 -0.03219984 5.29017220 5.38850443 -0.06405513 1.77071639 1.76644652 3.54930227 5.33115275 1.76476753 3.52803536 1.76928945 5.37312991 3.50322092 5.31793198 5.36633513 3.53181993 -0.00778156 -0.28820682 0.12624540 3.59666735 -0.24221061 0.05236032 -0.00987698 3.25577777 0.06297512 3.57580646 3.25167676 0.10574556 -0.01177479 0.32092839 3.43447788 3.57291218 0.27186552 3.38454795 0.00923061 3.82628329 3.35743291 3.56766685 3.83976259 3.38054043 0.00711214 1.50024682 1.98906685 3.52961418 1.48248853 1.92700830 -0.01476367 5.08999522 1.88002895 3.49470002 5.02296695 1.90480047 -0.05611112 2.06764844 5.19851238 3.54161425 2.02668920 5.21306091 -0.04204283 5.60281045 5.24565798 3.54247554 5.63659293 5.23675470 1.80974680 -0.25972463 1.92606484 5.33431702 -0.28116442 1.91105456 1.79944228 3.29748792 1.96234406 5.32097782 3.24388233 1.91312492 1.78624497 0.25057964 5.20476835 5.32674051 0.23213233 5.23915663 1.70757563 3.84404291 5.25536691 5.32562544 3.77139223 5.22937488 1.78665233 1.50471912 0.05195401 5.30373126 1.54470855 0.07272816 1.80200464 5.04245148 0.08933144 5.30022663 5.11438280 0.05747615 1.76066195 2.04056798 3.42777108 5.32109834 2.03888894 3.40650419 1.75923495 5.64725150 3.38168966 5.30787740 5.64045660 3.41028871
-0.04275813 -0.04052186 0.01077736 3.51422248 -0.00058292 0.04184528 0.01048805 3.52976802 -0.07511724 3.56816507 3.59128338 -0.03368593 0.02284717 0.01190359 3.52661115 3.59620388 -0.02130489 3.45788905 -0.02717345 3.53077264 3.49509491 3.52850843 3.54047820 3.51060144 -0.03655246 1.76861662 1.82740128 3.51253753 1.77390520 1.89606204 -0.05811764 5.30322644 1.82403570 3.56028028 5.28831348 1.83972027 -0.02765626 1.75707806 5.34425207 3.53233495 1.79803867 5.35010712 0.01082282 5.29822004 5.33564482 3.53406551 5.31095900 5.33337303 1.73043061 -0.01864167 1.81241094 5.36242821 -0.02891965 1.79599473 1.78859697 3.56685459 1.85450355 5.30022513 3.56933594 1.82075921 1.76657147 -0.00756071 5.36821432 5.32048217 -0.05550296 5.35250596 1.74554826 3.54959500 5.42913060 5.35320331 3.51696735 5.34088287 1.80231659 1.69436867 -0.00186143 5.30284696 1.81351174 -0.03720955 1.85358280 5.33548928 -0.04110594 5.32993837 5.26751474 -0.00004721 1.83453102 1.81209190 3.46308342 5.30225507 1.75884822 3.56882153 1.76063044 5.34336302 3.57214666 5.32698109 5.29727583 3.53233394 -0.09748139 0.25218071 0.04741451 3.45949942 0.29211851 0.07848223 -0.04423512 3.82247000 -0.03848004 3.51344197 3.88398479 0.00295116 0.07757054 -0.28079865 3.48997432 3.65092700 -0.31400679 3.42125198 0.02754984 3.23807051 3.45845777 3.58323150 3.24777689 3.47396451 -0.09127563 2.06131901 1.86403839 3.45781434 2.06660714 1.93269944 -0.11284074 5.59592842 1.86067270 3.50555714 5.58101519 1.87635731 0.02706702 1.46437641 5.30761494 3.58705820 1.50533670 5.31347013 0.06554600 5.00551825 5.29900744 3.58878869 5.01825721 5.29673605 1.67570721 0.27406075 1.84904803 5.30770496 0.26378222 1.83263179 1.73387388 3.85955653 1.89114058 5.24550203 3.86203753 1.85739632 1.82129471 -0.30026259 5.33157736 5.37520530 -0.34820557 5.31586881 1.80027140 3.25689318 5.39249360 5.40792646 3.22426560 5.30424585 1.74759344 1.98707076 0.03477563 5.24812381 2.10621382 -0.00057252 1.79885966 5.62819095 -0.00446892 5.27521515 5.56021663 0.03658986 1.88925421 1.51939037 3.42644620 5.35697823 1.46614638 3.53218453 1.81535356 5.05066095 3.53550953 5.38170417 5.00457388 3.49569700
-0.04261159 -0.04896116 0.00786134 3.54756598 0.03107649 -0.04317782 -0.02894653 3.56869869 -0.00175639 3.55639122 3.55869533 -0.02514258 0.04185640 0.01563541 3.57513166 3.54078201 -0.03356503 3.53621718 0.00304564 3.59305267 3.53026808 3.55100268 3.50440522 3.47264657 -0.01825773 1.82687152 1.82071095 3.51498220 1.75222029 1.81413325 -0.04131517 5.32558715 1.80915046 3.56657272 5.27895133 1.79308749 -0.00494609 1.83148292 5.35899380 3.57032389 1.77691224 5.36303547 0.01457735 5.33702185 5.35861339 3.54682075 5.27871228 5.34717221 1.72651863 -0.02613705 1.78543523 5.33075160 0.03796094 1.79568294 1.75219877 3.59144035 1.83873286 5.30557576 3.58082549 1.81749048 1.76335711 0.00301677 5.32830790 5.39782999 -0.01975948 5.34072235 1.81146434 3.54934905 5.33698967 5.35308282 3.61541006 5.36365246 1.71511976 1.78735971 -0.07385628 5.28427693 1.74481779 -0.01810312 1.73339542 5.32155576 -0.02729006 5.34419871 5.32720658 -0.03542510 1.82191221 1.78830655 3.50799715 5.27935874 1.76190213 3.52898880 1.74418427 5.32635647 3.53351944 5.35155320 5.30948684 3.48357325 0.19511609 -0.17465887 -0.12517429 3.78529343 -0.09462103 -0.17621374 0.20878054 3.44300030 -0.13479260 3.79411877 3.43299718 -0.15817880 -0.19587178 0.14133400 3.70816732 3.30305456 0.09213370 3.66925353 -0.23468240 3.71875100 3.66330447 3.31327484 3.63010348 3.60568259 0.21947001 1.70117341 1.68767517 3.75270969 1.62652197 1.68109683 0.19641270 5.19988915 1.67611440 3.80430014 5.15325298 1.66005142 -0.24267384 1.95718134 5.49203025 3.33259573 1.90261070 5.49607191 -0.22315053 5.46272055 5.49164967 3.30909314 5.40441071 5.48020873 1.96424617 -0.15183459 1.65239906 5.56847919 -0.08773716 1.66264683 1.98992606 3.46574182 1.70569675 5.54330329 3.45512727 1.68445389 1.52562934 0.12871530 5.46134415 5.16010224 0.10593908 5.47375851 1.57373620 3.67504776 5.47002579 5.11535509 3.74110850 5.49668892 1.95284697 1.66166139 -0.20689211 5.52200437 1.61911929 -0.15113892 1.97112257 5.19585772 -0.16032575 5.58192623 5.20150835 -0.16846101 1.58418439 1.91400476 3.64103346 5.04163102 1.88760026 3.66202522 1.50645649 5.45205458 3.66655588 5.11382554 5.43518474 3.61660930
0.04642209 -0.00577389 -0.01118357 3.55468201 0.02645769 -0.04397646 0.02888856 3.57804766 -0.07252192 3.61054964 3.48568941 -0.01870744 -0.00068423 -0.01581182 3.55294979 3.54362934 0.02121222 3.54455121 -0.02412817 3.51099347 3.49212403 3.62030728 3.56629723 3.50401391 -0.01478075 1.78438733 1.82988849 3.54777550 1.79504913 1.78429719 0.05529614 5.31939224 1.82624192 3.55835586 5.38152833 1.85861713 0.03227941 1.74380465 5.35483725 3.56948698 1.79955880 5.35311112 -0.01732781 5.34317297 5.34748951 3.48477413 5.32450797 5.32329953 1.82769905 0.03906793 1.77920302 5.28671335 -0.02678137 1.81474962 1.79880147 3.53701667 1.84075671 5.28904724 3.57345434 1.77886381 1.79590262 0.02062529 5.33476098 5.34260621 0.03309701 5.37003085 1.73981433 3.53122007 5.32910709 5.31286634 3.54983371 5.36411274 1.80075307 1.80909109 -0.04329469 5.32723320 1.77160385 -0.01352821 1.75693398 5.32485408 -0.06509726 5.30782936 5.32677779 -0.01067747 1.83449602 1.75415103 3.52723257 5.29852539 1.76186270 3.55227495 1.79317110 5.28547064 3.51717526 5.29098714 5.30317548 3.56190142 -0.00615749 -0.12608780 0.25859034 3.50210213 -0.09385661 0.22579826 -0.02369136 3.45773326 0.19725291 3.55796989 3.36537539 0.25106710 0.05189522 0.10450163 3.28317718 3.59620918 0.14152613 3.27477742 0.02845129 3.63130735 3.22235059 3.67288709 3.68661121 3.23424007 -0.06736015 1.66407378 2.09966157 3.49519568 1.67473466 2.05407234 0.00271662 5.19907845 2.09601545 3.50577608 5.26121384 2.12839190 0.08485899 1.86411851 5.08506369 3.62206668 1.91987273 5.08333757 0.03525220 5.46348685 5.07771601 3.53735373 5.44482176 5.05352624 1.77511929 -0.08124639 2.04897745 5.23413361 -0.14709578 2.08452389 1.74622165 3.41670214 2.11053169 5.23646724 3.45313983 2.04863874 1.84848229 0.14093932 5.06498729 5.39518571 0.15341056 5.10025746 1.79239372 3.65153399 5.05933348 5.36544573 3.67014789 5.09433903 1.74817329 1.68877673 0.22648014 5.27465332 1.65128956 0.25624615 1.70435416 5.20453993 0.20467716 5.25524968 5.20646363 0.25909659 1.88707560 1.87446468 3.25745908 5.35110512 1.88217670 3.28250094 1.84575090 5.40578467 3.24740109 5.34356689 5.42348943 3.29212767
0.02076434 0.03386575 -0.05104989 3.53164800 -0.01877105 0.03077122 0.00366304 3.55204646 -0.00116960 3.50582867 3.54994123 -0.02465312 -0.01240637 0.03336697 3.50077727 3.60100180 0.02544129 3.46613597 -0.00429819 3.54382745 3.51188260 3.54502238 3.55161144 3.52200813 0.02137937 1.80229284 1.81843357 3.57568359 1.77431366 1.84768767 -0.01186162 5.33777918 1.80255995 3.49766085 5.26711467 1.80068476 0.01389607 1.72419018 5.31538315 3.57791587 1.79724561 5.38397400 -0.00649467 5.28614885 5.31570744 3.57376576 5.27113559 5.39866212 1.75407793 -0.00593306 1.77808098 5.35429773 0.03320203 1.80346984 1.80370971 3.57078359 1.84079053 5.32102193 3.54548537 1.75627275 1.75626776 0.02599367 5.35690272 5.29861163 -0.01124091 5.33887901 1.82459404 3.53026486 5.32907683 5.33134536 3.50629977 5.31020473 1.79028297 1.77541615 -0.04651464 5.31643798 1.76762021 -0.06255413 1.76189025 5.36884694 -0.03858559 5.32654564 5.40052355 -0.03912905 1.78382794 1.76732162 3.52900012 5.35429780 1.73985807 3.52675209 1.83362007 5.34009515 3.53102216 5.29050400 5.30176171 3.52119565 0.30644002 0.05171971 -0.14090729 3.81732464 -0.00091698 -0.05908665 0.28934478 3.56990121 -0.09102873 3.79150370 3.56779534 -0.11451028 -0.29807925 0.01551332 3.59063390 3.31532783 0.00758759 3.55599282 -0.28997124 3.52597387 3.60173882 3.25935069 3.53375791 3.61186410 0.30705447 1.82014678 1.72857633 3.86135681 1.79216766 1.75783087 0.27381464 5.35563315 1.71270239 3.78333467 5.28496864 1.71082806 -0.27178001 1.70633629 5.40524053 3.29224037 1.77939167 5.47383123 -0.29217308 5.26829446 5.40556569 3.28808910 5.25328133 5.48851949 2.03975390 0.01192099 1.68822331 5.63997017 0.05105583 1.71361367 2.08938242 3.58863763 1.75093391 5.60669872 3.56333942 1.66641506 1.47059120 0.00813963 5.44676006 5.01293584 -0.02909494 5.42873668 1.53891845 3.51241078 5.41893446 5.04566517 3.48844587 5.40006363 2.07595965 1.79326965 -0.13637245 5.60211360 1.78547404 -0.15241183 2.04756656 5.38670081 -0.12844311 5.61222291 5.41837750 -0.12898704 1.49815442 1.74946784 3.61885694 5.06862474 1.72200430 3.61660882 1.54794275 5.32224139 3.62088070 5.00482725 5.28390795 3.61105509
-0.01580300 -0.03523934 -0.01104269 3.55325114 -0.01590021 0.00917952 -0.05016819 3.50634269 -0.04401803 3.56139463 3.54519668 -0.08947621 -0.01824200 0.03145205 3.54248738 3.57307133 0.05626937 3.51977438 -0.03837713 3.51736406 3.56119709 3.59736554 3.56468526 3.51821560 0.02267715 1.80380231 1.83081830 3.54202616 1.82538197 1.77727470 -0.00554403 5.37594256 1.82882809 3.54170345 5.34481934 1.80294063 -0.04576056 1.78171312 5.34462427 3.52724999 1.75103873 5.32911181 -0.02074791 5.33602578 5.38474308 3.52183266 5.32837331 5.35174333 1.78378462 -0.03379711 1.86775944 5.31608858 -0.01412645 1.80995739 1.81927741 3.54311226 1.78546568 5.33190420 3.55146276 1.82395096 1.73572052 0.01311556 5.34224901 5.28080520 0.04910130 5.40567724 1.84355472 3.53660960 5.35563641 5.30920575 3.49976497 5.33447391 1.74267853 1.81001839 0.01857988 5.30427884 1.80336244 -0.06835821 1.78723679 5.30376071 -0.04679381 5.32002614 5.30060498 -0.03937852 1.78753789 1.77852031 3.47064140 5.38512894 1.80113482 3.47697590 1.77281417 5.33169444 3.48293388 5.31075775 5.31684795 3.49191550 -0.21166357 -0.09518307 -0.23026608 3.35739044 -0.07584390 -0.21004422 -0.24602921 3.44639881 -0.26324193 3.36553378 3.48525293 -0.30869985 0.17761882 0.09139577 3.76171146 3.76893249 0.11621316 3.73899835 0.15748379 3.57730777 3.78042100 3.79322640 3.62462897 3.73743962 -0.17318379 1.74385851 1.61159439 3.34616520 1.76543818 1.55805051 -0.20140511 5.31599880 1.60960412 3.34584259 5.28487562 1.58371687 0.15010036 1.84165692 5.56384828 3.72311126 1.81098260 5.54833579 0.17511276 5.39596949 5.60396688 3.71769346 5.38831698 5.57096691 1.58792384 -0.09374081 1.64853583 5.12022743 -0.07407039 1.59073356 1.62341630 3.48316847 1.56624159 5.13604346 3.49151905 1.60472721 1.93158115 0.07305926 5.56147297 5.47666607 0.10904511 5.62490126 2.03941561 3.59655312 5.57486006 5.50506660 3.55970873 5.55369803 1.54681776 1.75007494 -0.20064427 5.10841819 1.74341874 -0.28758166 1.59137621 5.24381721 -0.26601730 5.12416535 5.24066113 -0.25860259 1.98339902 1.83846426 3.68986557 5.58098983 1.86107857 3.69619995 1.96867501 5.39163820 3.70215738 5.50661870 5.37679164 3.71113935
0.04550230 -0.01872120 -0.06446933 3.57439768 -0.02330290 -0.07280204 0.02264925 3.56072920 -0.07511292 3.54065964 3.59046795 0.00423274 0.00872596 -0.00241403 3.46923881 3.50255787 0.00919999 3.53767924 -0.01508258 3.53543665 3.55012257 3.58414882 3.55146007 3.48866927 0.01221919 1.77081710 1.76227939 3.63537711 1.76169621 1.81188244 0.02941078 5.34925506 1.80414775 3.58537387 5.35342292 1.81873801 -0.02188707 1.77603410 5.36727170 3.56530834 1.79086232 5.40487228 0.01395452 5.28560715 5.36049274 3.54788933 5.36918485 5.35652815 1.74340891 -0.02251657 1.80586815 5.35393859 -0.03843064 1.80823499 1.78221519 3.55372377 1.79951099 5.31607020 3.60672266 1.78460442 1.78087252 -0.02272688 5.35128119 5.29315320 0.00803090 5.38465374 1.75611049 3.57268734 5.30485236 5.29471232 3.54750803 5.39236510 1.75193353 1.76359189 -0.02425767 5.32305446 1.78504760 -0.01794747 1.76148751 5.31757397 -0.00211321 5.36218031 5.35446371 -0.04721570 1.77121575 1.75690011 3.51861345 5.37827183 1.77470752 3.46363558 1.79395619 5.33043799 3.52728951 5.31972699 5.30369797 3.54741080 0.03674991 0.00704299 -0.36325516 3.56564474 0.00246124 -0.37158766 0.01389650 3.58649326 -0.37389851 3.53190664 3.61623220 -0.29455294 0.01747894 -0.02817814 3.76802449 3.51131066 -0.01656420 3.83646504 -0.00632981 3.50967231 3.84890836 3.59290180 3.52569591 3.78745492 0.00346650 1.79658166 1.46349377 3.62662434 1.78746035 1.51309670 0.02065791 5.37501945 1.50536161 3.57662106 5.37918719 1.51995192 -0.01313392 1.75026996 5.66605716 3.57406130 1.76509820 5.70365800 0.02270742 5.25984296 5.65927823 3.55664251 5.34342087 5.65531392 1.73465611 0.00324771 1.50708258 5.34518564 -0.01266649 1.50944873 1.77346232 3.57948796 1.50072523 5.30731722 3.63248678 1.48581836 1.78962551 -0.04849121 5.65006648 5.30190626 -0.01773313 5.68343954 1.76486327 3.54692313 5.60363791 5.30346514 3.52174367 5.69115104 1.74318066 1.78935629 -0.32304323 5.31430140 1.81081187 -0.31673316 1.75273484 5.34333810 -0.30089898 5.35342717 5.38022806 -0.34600175 1.77996868 1.73113599 3.81739903 5.38702462 1.74894308 3.76242167 1.80270913 5.30467354 3.82607499 5.32848006 5.27793382 3.84619669
0.00346844 -0.04470621 -0.04479236 3.59614173 0.01668468 -0.06963951 0.02168724 3.51544871 -0.03221446 3.60043385 3.54788676 -0.09996027 0.01168299 0.01789690 3.53804084 3.49585792 0.05596588 3.49801783 0.01413841 3.55128218 3.53728749 3.55510529 3.54863284 3.43796083 0.01487482 1.79778576 1.77075993 3.57696489 1.76575601 1.77424904 -0.07467731 5.36538453 1.80732953 3.57745514 5.30392541 1.81990910 0.01490150 1.76555582 5.29897695 3.53840930 1.75340327 5.31895330 -0.00510049 5.32774148 5.37220291 3.53351003 5.28449766 5.42457891 1.74570029 0.00710301 1.84922691 5.31251717 -0.01133895 1.80450073 1.78412714 3.53773304 1.82569981 5.33368419 3.57050374 1.79387608 1.80206321 -0.04296781 5.36073737 5.36192341 -0.01912999 5.38042546 1.75001843 3.62504546 5.32926759 5.29934501 3.51862880 5.36930167 1.73098059 1.74042446 -0.01786179 5.34602948 1.73632197 -0.00211801 1.77990215 5.34990768 -0.02490638 5.34781504 5.35110749 -0.07544794 1.79417824 1.80785375 3.48367566 5.34197549 1.81704137 3.53120393 1.78170547 5.35896085 3.52037637 5.36210202 5.35799640 3.47278977 0.05457040 -0.14146787 -0.32414551 3.64724365 -0.08007682 -0.34899248 0.07278901 3.41868714 -0.31156721 3.65153551 3.45112516 -0.37931266 -0.03941895 0.11465864 3.81739419 3.44475606 0.15272766 3.77737070 -0.03696366 3.64804381 3.81664072 3.50400326 3.64539458 3.71731401 0.06597676 1.70102418 1.49140696 3.62806693 1.66899435 1.49489597 -0.02357556 5.26862290 1.52797649 3.62855710 5.20716375 1.54055597 -0.03620043 1.86231751 5.57833007 3.48730757 1.85016510 5.59830622 -0.05620266 5.42450322 5.65155639 3.48240793 5.38125938 5.70393243 1.79680219 -0.08965848 1.56987434 5.36361915 -0.10810062 1.52514770 1.83522886 3.44097155 1.54634717 5.38478590 3.47374188 1.51452290 1.75096147 0.05379399 5.64009059 5.31082152 0.07763174 5.65977830 1.69891637 3.72180714 5.60862095 5.24824302 3.61539032 5.64865470 1.78208201 1.64366302 -0.29721458 5.39713151 1.63956034 -0.28147134 1.83100400 5.25314605 -0.30425934 5.39891693 5.25434579 -0.35480127 1.74307625 1.90461575 3.76302943 5.29087362 1.91380306 3.81055694 1.73060353 5.45572260 3.79972966 5.31100018 5.45475779 3.75214289
-0.02580906 0.01730613 -0.03546684 3.52964714 -0.00765731 -0.06778470 0.00044792 3.55233644 -0.02633582 3.57516259 3.59220776 -0.01585241 -0.02613013 0.06734504 3.49894645 3.56690178 -0.04404368 3.50126763 -0.01344651 3.54510545 3.49842224 3.59842601 3.54871867 3.52626723 -0.00207767 1.81558753 1.81714225 3.58256282 1.77760873 1.81498146 -0.01140431 5.33420014 1.76923884 3.49469871 5.32007839 1.78914778 -0.03797620 1.81570626 5.39212101 3.52992356 1.76278780 5.34176921 -0.04112351 5.31326764 5.34382823 3.52179468 5.30923543 5.35627574 1.73697075 -0.01172913 1.79977091 5.33704783 0.04380106 1.82772050 1.78606799 3.51066252 1.78247946 5.34581689 3.53447963 1.84698993 1.77564200 -0.06040268 5.38908428 5.33060591 -0.00467581 5.37163293 1.74304875 3.60874013 5.34223132 5.36184231 3.54576055 5.33691631 1.77304050 1.77033274 -0.07081590 5.31966015 1.76767442 -0.10372514 1.80668364 5.26496882 0.00271124 5.31962018 5.33515844 -0.01429343 1.78953185 1.83368444 3.54873124 5.30311501 1.80817135 3.43383430 1.73230899 5.35721314 3.54343898 5.37311614 5.32070277 3.49976682 0.17892660 0.18339754 -0.17278274 3.72567531 0.15137066 -0.19925982 0.20785235 3.72059334 -0.16544067 3.77761720 3.75644883 -0.15163723 -0.22681142 -0.09545918 3.63354338 3.35704783 -0.21428767 3.64201432 -0.23210336 3.36772069 3.64507506 3.39033178 3.37990127 3.66583525 0.20917284 1.98696489 1.67545657 3.77547756 1.93411092 1.68559282 0.18773241 5.49574988 1.63567793 3.69831693 5.48526249 1.65258245 -0.24830660 1.64507694 5.53318776 3.32987233 1.60049667 5.47594248 -0.25722506 5.13795532 5.48876568 3.31963010 5.14522991 5.49186624 1.93140052 0.14600183 1.66936875 5.53003097 0.20035764 1.69828924 1.99419139 3.67950229 1.64289121 5.55664118 3.70551196 1.70559011 1.57679061 -0.22172065 5.52245282 5.12048170 -0.17513998 5.51256147 1.54888224 3.45122177 5.47245650 5.14132312 3.36686543 5.48481795 1.97070381 1.93068755 -0.20338774 5.53109450 1.93920145 -0.24553309 2.00084583 5.42248197 -0.12751208 5.52909723 5.50509806 -0.15478835 1.58178241 1.66514830 3.68806788 5.10989384 1.65142006 3.56342742 1.51740434 5.18287411 3.68757311 5.15941447 5.14733667 3.64309688