-267.79502560
-267.82559157
-267.86178622
-267.79361156
-267.78412768
-267.80346749
-267.66834166
-267.82382917
-267.82378804
-267.81066501
-267.77712280
-267.86747930
-267.69586175
-267.73902519
-267.71555112
-267.72444460
-267.75930618
-267.76533719
-267.81053660
-267.81574741
-267.66891698
-267.80079180
-267.81418439
-267.80780390
-267.79970670
-267.78498204
-267.79857167
-267.79373542
-267.79280898
-267.79019003
-267.77862594
-267.81094127
-267.78479640
-267.84220235
-267.85540966
-267.82142420
-267.75082922
-267.76630125
-267.85364237
-267.79925933
-267.86014473
-267.80932033
-267.58048452
-267.80790977
-267.74123367
-267.78422524
-267.78338060
-267.77619285
-267.78226636
