0.08845359 -0.60521250 0.00603115 0.12140091 -0.42516911 -0.09202874 -0.13184536 0.36485044 -0.18373837 0.16077592 0.11417274 0.03854624 0.22282633 0.59831291 0.33726950 0.41220021 -0.31454325 -0.15420860 -0.38403837 0.32111770 0.66933746 0.38730343 0.03111310 0.22387062 0.46257674 -0.22293976 0.29766291 -0.21503083 0.05859718 -0.27180426 -0.05229041 -0.26735812 -0.09502811 0.15639653 0.21369321 -0.04961089 -0.31686380 -0.07113934 -0.47420994 0.10125674 -0.15378997 -0.15313949 0.19773399 -0.04961580 0.22595508 0.35915292 0.21772001 0.21494793 -0.19936589 0.16180581 0.43318218 -0.73577753 0.39454937 -0.41835233 0.25173577 -0.26280993 -0.47415879 -0.02937904 0.33738242 0.05227977 -0.06639340 0.02870025 0.32601137 -0.22272135 -0.19306025 -0.47666027 -0.29684777 -0.07417762 -0.20619533 0.24799348 -0.34478589 -0.09101384 0.19128886 0.19608584 0.24156435 -0.30421467 0.64185070 -0.15429301 -0.11090474 -0.08890758 -0.33007796 -0.19704796 0.33712489 0.06399026 -0.38642699 -0.16338489 -0.41219350 0.30416592 -0.11981467 0.63800170 0.03101449 -0.15853532 0.13874070 -0.04712768 -0.50183257 0.12932223 0.02661190 0.02497146 -0.01791669 -0.00434500 -0.00394004 0.00270559 -0.00323010 -0.00286404 0.00239642 -0.01590305 -0.01546813 0.01089486 -0.01698528 -0.01575000 0.01114864 0.00020024 0.00050957 -0.00038426 -0.00711303 -0.00653542 0.00412158 -0.02339406 -0.02188509 0.01544437 0.01907450 0.01832787 -0.01322638 0.01032454 0.01015627 -0.00660874 0.02085774 0.01881069 -0.01353549 0.00590608 0.00510478 -0.00366659 0.00806905 0.00743784 -0.00583479 -0.00962326 -0.00966421 0.00642513 0.01888059 0.01813781 -0.01244303 0.01318600 0.01232586 -0.00877988 -0.00631744 -0.00661794 0.00474848 0.02858287 0.02700408 -0.01887657 0.02308796 0.02121515 -0.01518225 0.00207287 0.00252021 -0.00165878 0.01162648 0.01114303 -0.00818122 0.00492932 0.00442557 -0.00326635 -0.01954185 -0.01823635 0.01265185 0.02982865 0.02737308 -0.01967761 0.02398128 0.02247425 -0.01578419 0.02306508 0.02122483 -0.01513141 -0.00791649 -0.00670998 0.00515112 -0.02455801 -0.02308523 0.01668768 0.00302613 0.00308524 -0.00188630 -0.00089892 0.00024811 0.00022991 -0.02471835 -0.02401899 0.01674287 0.00468913 0.00409969 -0.00340566
0.03225208 -0.76648986 0.31509835 -0.43110414 0.14930213 0.64252535 0.22062598 0.10921000 -0.38314748 0.11570638 0.25600724 -0.22978291 -0.21254275 -0.05243001 -0.20774465 0.21696294 -0.52209147 -0.41377405 0.05732325 0.09713923 -0.28060752 -0.08506020 0.08969406 0.55692627 0.18005318 -0.04053155 -0.08232546 -0.19075741 -0.23994725 -0.15266115 -0.17254922 0.34539415 0.08560337 -0.00909148 0.21048581 -0.02933183 0.11285501 -0.01005279 -0.44297055 0.41144321 0.11154571 -0.06071433 0.05400104 -0.26577632 -0.10648580 -0.05656743 -0.77076016 -0.20420758 0.04932963 0.28280820 0.12000982 0.06525787 0.40454750 0.20889504 -0.08803225 -0.07805168 0.02199163 0.20660146 0.17816917 0.29877375 -0.29531941 -0.09979800 -0.01900853 0.52688378 0.18566336 -0.58850840 -0.30213443 0.08718438 -0.03676263 -0.05865700 0.18424150 0.39149560 0.11307776 0.14277822 0.36956244 -0.67969402 0.15500996 0.06081649 0.07867278 0.05382496 0.00757748 0.01183476 -0.31268112 0.11079881 0.12750907 0.20398059 -0.30107215 -0.24215940 -0.18409156 -0.08983993 0.38661869 0.08795685 0.13469698 -0.14333975 0.00775875 0.30417356 -0.03571529 -0.04163943 -0.01019214 -0.03026234 -0.03653450 -0.00887790 0.00140076 0.00144059 0.00047339 0.00520386 0.00550994 0.00121475 -0.01235894 -0.01545997 -0.00363143 -0.01593955 -0.01896962 -0.00489956 -0.00132660 -0.00176560 -0.00031916 0.00948270 0.01222007 0.00280041 -0.00529177 -0.00658691 -0.00139710 0.01068715 0.01326297 0.00316635 0.00897764 0.01037061 0.00284787 0.00168934 0.00233702 0.00069833 0.02451264 0.02934753 0.00776812 0.02638558 0.03101429 0.00768427 -0.00268178 -0.00262591 -0.00044083 0.00642023 0.00761422 0.00226081 0.02678682 0.03149574 0.00824024 0.01434647 0.01654669 0.00433390 -0.00391887 -0.00431331 -0.00077874 -0.00382557 -0.00426954 -0.00090893 0.03225154 0.03924961 0.01008423 0.03622121 0.04278146 0.01121156 -0.00505844 -0.00570110 -0.00150833 -0.01858505 -0.02332990 -0.00566196 -0.01828318 -0.02201080 -0.00527853 -0.03156676 -0.03804234 -0.00934534 0.00505723 0.00601650 0.00186730 -0.01154625 -0.01306174 -0.00300156 0.00178170 0.00195866 0.00066205 -0.00463594 -0.00478383 -0.00137572 -0.00627340 -0.00783133 -0.00168001 -0.00645731 -0.00780630 -0.00162263
0.28722414 0.36045602 0.11851703 0.19218566 -0.01260300 0.11603446 -0.11152816 0.25355474 -0.00095243 -0.14543216 -0.09223141 0.01108651 -0.09517230 -0.41280528 -0.36274305 0.04321699 -0.07034387 -0.37134402 -0.00306034 -0.44543771 0.05242033 -0.41384467 -0.11858377 -0.00540188 0.03869323 0.25791235 0.38401688 -0.14753353 0.17745327 0.22385506 0.00008600 -0.11130786 -0.25197424 -0.18398453 -0.25045531 0.09271280 0.04384202 0.31967656 0.41745614 -0.38258266 0.33329136 -0.02967633 0.24572020 -0.22845187 -0.30849109 -0.31958115 -0.16707279 0.05132199 -0.36401306 -0.03440630 0.32042770 0.01106733 -0.22397967 0.38871748 0.17758386 0.41625414 0.10669178 0.30968977 -0.18640139 -0.35202035 -0.00149684 -0.12005875 0.19520183 -0.12110570 -0.18369494 -0.31982672 0.01499751 0.10612564 0.17587719 0.27937871 -0.23604708 0.27412843 0.11439988 -0.30153843 -0.60094649 0.12980007 0.05173542 -0.09673403 -0.14709470 -0.34582600 -0.01462822 0.05202449 0.06405700 0.08298443 0.07679683 -0.01071209 -0.39150826 0.05826897 0.25339777 -0.25368001 0.13097364 0.09980361 0.08120497 0.23048048 0.85823964 0.26727211 -0.00919295 -0.01118427 -0.01769693 -0.01667023 -0.01920461 -0.03008569 0.00341923 0.00352245 0.00598898 -0.00290164 -0.00309365 -0.00408879 -0.00632454 -0.00689020 -0.01204212 -0.00788228 -0.01032239 -0.01596682 0.00083925 0.00158127 0.00186686 0.00781858 0.00842357 0.01346786 0.00819472 0.00954567 0.01532004 -0.00513485 -0.00724295 -0.01029829 0.00597042 0.00756475 0.01169991 0.00539453 0.00575620 0.01000701 0.00077931 0.00045719 0.00033743 0.01065519 0.01367546 0.02113527 0.00551357 0.00570491 0.00909066 0.00497532 0.00551284 0.00944387 0.00144708 0.00141624 0.00230359 0.00211257 0.00251030 0.00465010 0.00790216 0.00894220 0.01444541 -0.00630290 -0.00711943 -0.01119885 0.00528579 0.00557753 0.00893653 0.02425739 0.02817286 0.04413537 -0.01975368 -0.02310204 -0.03608021 0.00700858 0.00851053 0.01294249 0.00420971 0.00530217 0.00833934 -0.00461665 -0.00509090 -0.00806265 0.00258068 0.00254092 0.00480032 -0.00589267 -0.00751973 -0.01121178 -0.00240442 -0.00337312 -0.00505945 0.00405316 0.00404948 0.00664076 -0.00571088 -0.00652353 -0.01039741 0.01851529 0.02184203 0.03484174
-0.28635656 -0.13776296 -0.15888589 0.41539848 -0.22204997 0.05681497 -0.54121435 0.61904523 0.62948268 0.25313556 -0.07035659 -0.47479245 -0.14121887 -0.02790146 -0.05185065 -0.09727297 -0.15567147 0.16250227 -0.19351482 -0.13372709 -0.04589485 0.22605865 0.32831203 -0.09516359 -0.21598151 0.01544806 0.27697125 0.10598372 0.06925254 -0.98384027 -0.13534071 0.21658669 -0.22373403 0.33798881 -0.34039388 0.10236164 0.17795590 -0.41070038 -0.17386024 0.39411262 0.21105811 0.00181717 -0.27151342 0.09753010 0.41910797 0.45826053 0.12372057 -0.12630889 -0.06479149 0.34831893 0.39747048 -0.04940672 -0.29654223 -0.36450078 0.41218380 0.16793610 0.13316112 -0.05941668 0.09891785 0.53337174 0.07575360 0.08678860 0.06508646 -0.24378554 -0.46481564 -0.18200895 0.54410173 0.13140279 -0.57992670 -0.55273179 0.19749764 0.12044490 0.12180730 -0.41286844 0.11545868 -0.24424906 -0.12355364 0.28993418 -0.54841925 0.02451924 0.25391565 0.26634552 0.08647951 0.03838304 -0.37448563 -0.18665029 -0.02854463 0.30527743 0.26078094 -0.01578497 -0.10125612 -0.24306668 -0.05121946 0.02659184 0.14246578 -0.03996787 0.02011381 0.00547121 -0.02670918 0.00106918 0.00076401 -0.00228775 -0.04000872 -0.01146394 0.05302412 0.01500977 0.00443694 -0.02048300 -0.00940253 -0.00217240 0.01214184 0.01149836 0.00301412 -0.01529023 0.00525849 0.00180977 -0.00662175 -0.01235630 -0.00374947 0.01692747 -0.00643447 -0.00102459 0.00806852 -0.03311200 -0.00937688 0.04358404 0.00638638 0.00169795 -0.00870594 0.00002528 -0.00041125 -0.00023654 0.02845360 0.00785290 -0.03752438 0.00610341 0.00211854 -0.00861659 -0.00596315 -0.00200810 0.00886545 -0.01858623 -0.00489887 0.02446976 -0.00307613 -0.00086071 0.00386425 0.00218421 0.00059275 -0.00355532 -0.01327383 -0.00371156 0.01758698 0.03583934 0.01003548 -0.04762471 0.01301752 0.00356560 -0.01700559 -0.00104031 0.00005191 0.00128756 0.05416776 0.01466738 -0.07144712 -0.00749138 -0.00194426 0.01050835 -0.03460304 -0.00959256 0.04503085 -0.00655434 -0.00161035 0.00889817 -0.02609077 -0.00718085 0.03496468 0.03630081 0.01021841 -0.04830569 0.00315358 0.00089074 -0.00416873 0.00105582 0.00009346 -0.00096997 0.00919195 0.00249670 -0.01176940 -0.02889418 -0.00788747 0.03858631
-0.24688409 -0.33434197 0.11188750 -0.20605762 0.24144138 -0.10997299 -0.22664435 0.19123042 0.55631289 -0.25237079 -0.10485269 0.57917555 0.30325352 0.03792293 -0.22291439 -0.44097130 -0.01222617 0.36217306 0.09597285 0.31782557 0.07721491 0.16751432 -0.10320299 -0.03026336 -0.33385952 -0.15632683 -0.06403923 0.52288450 0.19403544 -0.17784188 -0.39665878 0.05069108 -0.15189881 0.18932560 -0.09745614 -0.04011450 -0.00884438 -0.20474567 -0.70618231 0.01337467 0.09209889 0.20615987 0.09607512 -0.02877887 -0.01330001 0.25436563 0.07562061 0.11733534 0.01307210 -0.02940575 0.37030415 0.60737363 -0.10573716 -0.61363664 -0.29796529 0.61972334 0.06095302 0.13122623 -0.16903772 -0.22995390 0.26983871 0.17254841 -0.04402830 0.39563442 0.31129938 -0.34495656 0.02496949 -0.44111294 -0.45129753 0.37071772 0.13572568 -0.39563303 0.51636627 0.17528068 0.08167549 -0.49246795 0.10558260 0.55288379 -0.47448830 0.17791046 0.26950287 -0.11248414 -0.19142726 0.73128029 -0.25586069 -0.35518807 0.05966243 0.02053910 0.27050354 -0.23933416 -0.34501049 -0.40328930 -0.23500176 0.09806379 -0.43231089 -0.06615181 -0.01078343 -0.01088964 -0.00186150 -0.00894984 -0.00957112 -0.00181599 -0.03106262 -0.03106173 -0.00560999 -0.01693036 -0.01664097 -0.00301581 -0.01905485 -0.01872168 -0.00314701 0.04135089 0.04159407 0.00805522 -0.03038773 -0.03053033 -0.00554806 0.00282712 0.00261919 0.00054025 -0.00093736 -0.00032760 -0.00001577 -0.00026429 -0.00013209 -0.00004800 0.04827967 0.04865802 0.00913321 -0.00201059 -0.00232223 -0.00046217 0.02856677 0.02880761 0.00547569 -0.00230062 -0.00281111 -0.00074334 0.00828150 0.00866522 0.00195043 0.03065173 0.03160895 0.00596534 0.01089453 0.01142429 0.00223568 0.00324244 0.00279690 0.00070993 0.00501409 0.00535583 0.00110371 0.04065943 0.04096818 0.00744733 0.01260093 0.01252426 0.00240759 0.03511818 0.03517699 0.00657112 0.03005710 0.03063610 0.00594324 0.01432372 0.01497102 0.00252879 -0.03383853 -0.03487717 -0.00659253 -0.01541487 -0.01563126 -0.00283219 -0.02509820 -0.02533793 -0.00474537 -0.02723704 -0.02716944 -0.00516893 -0.00658977 -0.00645590 -0.00129301 -0.01109164 -0.01097511 -0.00200565 -0.00789823 -0.00831036 -0.00177405 -0.00364934 -0.00389637 -0.00093428
0.26965309 0.37389548 -0.37016293 -0.42874031 -0.06445795 0.39138155 0.09611589 0.14696220 0.52425078 -0.26995449 0.20827461 -0.40309595 0.02506028 -0.45430817 -0.46285564 -0.21249039 -0.04926645 -0.07582807 -0.18708690 0.36309674 0.30442507 -0.20896843 -0.01360887 0.30834133 0.11425700 0.01944191 -0.78884310 0.17326338 0.13471505 0.09535724 0.12723179 -0.20957327 0.38549912 0.53688567 0.27917405 0.06680763 0.31406335 -0.21106470 0.45196276 -0.08472059 0.24853138 -0.04414273 0.26855050 -0.12850887 -0.09652865 -0.14609666 -0.53369426 -0.12997810 -0.22507061 0.11597104 -0.05980788 -0.05128289 0.19807136 0.10753873 -0.21669797 -0.26605333 -0.36133374 0.13394178 0.25791111 0.09518748 -0.20691173 0.09146459 0.39289713 -0.02763372 0.60394769 -0.10006918 0.46166290 0.01759271 -0.39654275 -0.24811118 0.67392496 -0.14915902 -0.22138139 -0.05707745 0.26771740 0.30232517 -0.49838543 0.23898439 -0.12423444 0.05473711 -0.01398408 0.14870702 -0.80223605 0.46140820 0.17813464 0.18056460 -0.18107284 -0.24270979 0.10007969 -0.26472228 -0.11686277 -0.32543008 0.18571139 0.06910179 -0.45469139 -0.37934322 0.00139327 -0.02592180 0.01164393 -0.00211847 0.04052592 -0.01798511 0.00083358 -0.00379035 0.00201580 0.00000882 -0.01271093 0.00617340 -0.00008652 -0.00758369 0.00324173 0.00183851 -0.03352060 0.01434832 -0.00011588 -0.01446023 0.00657955 -0.00098747 0.03385966 -0.01504228 -0.00129993 0.02239569 -0.00962988 -0.00021020 0.00621234 -0.00262800 0.00126294 -0.03210439 0.01456873 -0.00010914 0.00977209 -0.00439522 0.00160074 -0.02301311 0.00987488 -0.00058014 0.00401053 -0.00214370 0.00098951 -0.01192657 0.00505182 -0.00002128 -0.01793029 0.00770418 0.00004617 0.00421742 -0.00144655 -0.00018910 0.00474803 -0.00161759 -0.00064619 0.01635134 -0.00710427 0.00092245 -0.02348923 0.01012972 -0.00068798 0.00141860 -0.00042527 0.00248363 -0.06935635 0.03090046 -0.00036306 0.00994318 -0.00438954 0.00120436 -0.01814436 0.00777418 0.00087484 -0.01962560 0.00868319 -0.00122027 0.04057596 -0.01814382 -0.00024796 -0.00290298 0.00132239 -0.00171613 0.04386919 -0.01939237 0.00009584 0.00647488 -0.00292154 0.00048353 -0.01696452 0.00739113 -0.00003256 0.00963959 -0.00397679 -0.00115609 0.02653359 -0.01221588
0.23005459 0.15803513 -0.44118006 0.49469106 -0.00092458 -0.56128686 -0.02873234 -0.02787336 0.76512521 -0.14254588 -0.51673304 0.06719591 -0.18010269 -0.04935502 0.06472818 -0.39313212 -0.02375710 0.69552130 0.29937945 -0.01905896 0.31117667 0.15777085 0.22909061 0.46378212 0.19823881 0.16282084 -0.23780940 0.64149739 0.02834451 -1.22769067 0.63778098 -0.03751303 -0.10429251 -0.19684599 0.20472893 -0.15679653 0.38403729 -0.17976717 0.23067209 -0.04665973 -0.29963845 0.16460055 0.00603717 0.17689476 0.37383313 0.24025917 0.17155904 0.15222663 0.21218304 -0.02832689 0.13246753 -0.23654922 0.26055503 0.13418506 -0.34471856 0.10823648 -0.69277743 0.04878037 -0.51434260 -0.02153905 0.11413109 0.16639192 -0.10598440 -0.22815820 0.27606308 0.27161166 0.32955878 -0.34170788 -0.65743003 -0.28946852 0.25331125 0.11299213 -0.33528415 0.58676821 -0.01753883 0.03097776 -0.33433548 0.21810011 -0.77716124 -0.08135210 0.35875120 -0.03466500 0.17320341 -0.46699360 -0.87564124 -0.45928167 1.00990516 0.10215710 -0.03518814 -0.47583857 -0.02916002 -0.16825528 -0.45352369 0.01129001 0.16140754 0.09380700 -0.00664953 0.03515933 0.00437094 -0.00675512 0.03650806 0.00492706 0.00071777 -0.00391393 -0.00061916 0.00182187 -0.00948385 -0.00087268 -0.00208946 0.01171592 0.00125884 -0.00951127 0.04990554 0.00637770 -0.00576228 0.02981302 0.00382416 -0.01146832 0.06199730 0.00772795 0.00110119 -0.00776833 -0.00115295 0.01370922 -0.07604034 -0.00948844 0.00700907 -0.03743916 -0.00456046 0.01160694 -0.05932712 -0.00717645 0.00750478 -0.04275576 -0.00558289 0.00803119 -0.04346845 -0.00487093 0.00217356 -0.01154507 -0.00159145 0.00638542 -0.03172564 -0.00383901 0.00105106 -0.00450725 -0.00075634 0.00467816 -0.02477782 -0.00281840 0.00307517 -0.01631668 -0.00225800 0.00700459 -0.03983075 -0.00502222 0.00591651 -0.02939382 -0.00389417 0.00817391 -0.04376188 -0.00543056 -0.00427043 0.02353508 0.00281243 -0.00256558 0.01227549 0.00116124 -0.00376999 0.02185135 0.00300311 -0.00500847 0.02806153 0.00367330 0.00342649 -0.01973749 -0.00267738 0.00282521 -0.01551002 -0.00238572 -0.00966911 0.05132689 0.00636545 -0.00259201 0.01383985 0.00175062 0.00094858 -0.00702329 -0.00131772 -0.00643335 0.03520877 0.00463067
0.38036508 0.56972653 -0.32494285 -0.09663446 -0.35724796 0.01298195 0.25728392 -0.12967235 -0.22759750 -0.12894267 -0.17666018 0.03207877 -0.30918528 0.10347791 -0.56311205 0.03215479 0.00188566 -0.23513411 -0.12712462 -0.37558428 0.00031573 0.03620145 0.42082056 0.48361817 0.14966454 -0.26926288 0.07361318 0.04268283 -0.04782209 -0.35417794 0.29777318 0.16412334 0.16294791 -0.24496284 0.47854606 0.03973857 -0.18287968 -0.27374041 -0.02223229 -0.06711929 0.06040988 -0.06807159 -0.01085858 -0.17534445 0.09722654 0.05313130 0.40541058 0.06252900 0.30028465 0.19462543 0.10183488 -0.07055989 -0.17954323 0.29594065 0.10931429 -0.30463403 -0.42885598 0.09949505 -0.51762472 -0.11747915 0.03781970 0.06954156 0.39133396 -0.55302962 0.11863299 0.02029446 -0.21741535 0.00255476 0.23445141 -0.31761400 -0.52109819 -0.11420599 0.40677380 -0.02130412 0.48999837 0.30066211 0.33010522 -0.18608950 0.40835210 -0.00947639 -0.07314668 -0.35774988 0.10474311 -0.00137739 -0.42037387 -0.09742563 0.07242305 0.22663275 0.16518313 0.00093786 0.30952697 -0.00369704 -0.26602308 -0.34366850 0.27035122 0.41018166 -0.01225665 0.00599613 0.00662147 0.02205789 -0.01143206 -0.01238914 -0.00360723 0.00209903 0.00169709 0.01671691 -0.00864877 -0.00921958 0.00449612 -0.00221929 -0.00214213 -0.01331272 0.00705212 0.00724720 0.02538215 -0.01300513 -0.01372407 0.04442874 -0.02386808 -0.02481465 0.01676742 -0.00863202 -0.00914155 0.00543969 -0.00298742 -0.00310363 -0.03841149 0.02049689 0.02167234 0.01010343 -0.00557611 -0.00600220 -0.00684713 0.00320682 0.00356267 -0.00697843 0.00420278 0.00441846 0.04492930 -0.02402658 -0.02450925 -0.01872247 0.01037177 0.01090804 0.03278687 -0.01684391 -0.01829336 0.00162580 -0.00117133 -0.00090189 -0.01916304 0.00985733 0.01098931 -0.02852377 0.01517079 0.01619473 -0.00637411 0.00274670 0.00382133 -0.00533477 0.00298963 0.00342520 0.00015978 -0.00045538 0.00026618 0.00682568 -0.00286557 -0.00348579 0.01527336 -0.00847845 -0.00880427 0.01322129 -0.00684886 -0.00749833 0.00960429 -0.00513400 -0.00545775 -0.03140380 0.01684005 0.01779661 0.02128313 -0.01094407 -0.01175630 -0.01188608 0.00576157 0.00689199 0.01762243 -0.00902585 -0.00988124 0.03206475 -0.01722007 -0.01785916
-0.19738633 0.01712800 0.00582850 -0.09319912 -0.22603288 -0.02046048 -0.24047273 -0.17956797 0.48328754 -0.62599667 0.75791568 -0.15359806 0.10902870 0.06312371 -0.44018689 0.05548194 -0.03968673 -0.15103268 0.08497258 0.21115294 0.24324762 -0.54338970 -0.18551509 0.12313703 0.09161789 -0.17573163 -0.22999117 0.18559444 -0.15477769 0.37127833 -0.37370078 -0.00865139 -0.12862719 -0.19946641 -0.41411086 -0.65228765 -0.25180194 0.24599202 0.09326350 -0.04489354 -0.07983692 0.08557573 0.01883979 -0.05077545 0.01686753 0.44035403 -0.10014889 0.48148777 -0.37194277 -0.25848275 0.28703984 0.45319154 0.13741481 0.02365499 -0.11379645 0.05399093 -0.38899336 0.49644058 -0.02409325 0.16714448 -0.11139544 -0.08127189 0.25742367 -0.06783425 -0.28603131 0.07249108 0.33251790 0.11143012 0.05146238 0.28300498 0.02689311 0.01281199 -0.20137879 -0.14244145 0.09500673 0.38268508 -0.05098473 -0.08529317 0.24887079 -0.09681501 0.38984176 0.07796901 0.12085554 -0.20004350 -0.38626343 0.25089681 -0.14077032 0.23540723 0.05424371 -0.43221286 -0.13523713 0.28151747 0.04877395 0.46217899 0.22240102 -0.28612709 -0.00550986 -0.01152966 0.02640227 0.00306575 0.00659064 -0.01522147 0.00113198 0.00230393 -0.00529838 0.00195310 0.00417974 -0.00885901 0.00624213 0.01401105 -0.03196797 -0.00816937 -0.01823895 0.04126635 0.00059687 0.00083495 -0.00274392 -0.00944386 -0.02199017 0.04964647 -0.00808292 -0.01811440 0.04042102 0.00628236 0.01485266 -0.03202290 -0.00516920 -0.01318245 0.02909662 0.00729803 0.01667530 -0.03691303 -0.00219905 -0.00482463 0.00984244 -0.00583128 -0.01362397 0.03011360 0.00179154 0.00398841 -0.00922327 0.00303497 0.00682664 -0.01494866 -0.00319701 -0.00756077 0.01785091 -0.00258845 -0.00546795 0.01247712 0.00045325 0.00026006 -0.00043636 -0.00091243 -0.00189887 0.00483163 -0.00365725 -0.00901843 0.01948369 -0.00396334 -0.00912464 0.02006774 -0.00045504 -0.00145915 0.00354292 -0.00192353 -0.00404036 0.00908936 0.00387631 0.00885728 -0.01999253 0.00259870 0.00563872 -0.01292306 -0.00043536 -0.00153125 0.00363119 -0.00554050 -0.01227376 0.02802898 -0.00165741 -0.00333430 0.00778655 -0.00229501 -0.00445425 0.00968103 -0.00288223 -0.00735023 0.01545410 -0.00102239 -0.00296285 0.00581705
-0.26792203 -0.23197513 0.02777311 0.13495814 0.19462208 -0.58579123 0.08398810 -0.09208574 -0.45033278 0.37093964 -0.05723181 0.13833676 0.21089171 -0.42463634 0.11464544 -0.42228746 -0.41496140 0.53186064 0.06886572 0.17566117 -0.00559603 0.21599337 -0.16493327 -0.03651205 -0.02797852 -0.09788077 -0.23907231 -0.14928228 0.17266979 -0.47110475 0.12023778 -0.06598321 0.14876884 0.50993212 0.45941049 -0.06525029 -0.01150655 0.41008872 0.39954855 -0.23369392 -0.42640922 -0.23455509 0.05033952 0.29430334 0.22960747 -0.19739287 0.56802431 -0.33710993 0.06910821 0.11876452 0.40668663 -0.04721835 -0.26283508 -0.23519098 -0.32928490 -0.23427654 -0.31057215 0.02103735 -0.03912827 0.34691094 0.44764798 -0.28398582 -0.23585975 0.00683142 0.00603600 0.10724312 -0.42814954 0.16401089 0.23606959 0.01064322 0.35827765 0.58390234 -0.12224378 0.17009338 0.19068261 0.19762191 0.01326595 0.30123195 -0.12059678 -0.44382284 -0.16151980 0.16107458 -0.60216108 0.12442850 0.09804243 -0.01709240 -0.16157334 -0.15289132 0.45431459 -0.22083748 -0.40851607 0.14699754 0.10287140 0.14081114 0.15285851 -0.23968993 -0.00996580 -0.00061156 0.00310105 0.02833933 0.00158140 -0.00936664 0.07032087 0.00441247 -0.02215170 0.00373498 0.00035487 -0.00124256 0.03936024 0.00271864 -0.01223789 0.02268594 0.00156943 -0.00726133 0.00778522 0.00036214 -0.00240996 0.05349263 0.00306137 -0.01662331 -0.01880602 -0.00057213 0.00553114 -0.02632242 -0.00152127 0.00833918 0.01276880 0.00038944 -0.00391298 -0.02599447 -0.00212495 0.00848477 0.01175450 0.00021513 -0.00374624 0.02511689 0.00108556 -0.00757886 -0.05351837 -0.00292628 0.01691969 0.01779151 0.00124558 -0.00540417 -0.00011829 -0.00009440 -0.00025225 -0.02130717 -0.00104313 0.00625568 -0.04444322 -0.00273021 0.01403440 0.02149007 0.00104575 -0.00700497 -0.01047572 -0.00088835 0.00361960 0.01051668 0.00048887 -0.00343685 0.01133124 0.00091612 -0.00312480 -0.01414671 -0.00092368 0.00443282 -0.00551470 -0.00066601 0.00164772 -0.00348025 -0.00097115 0.00124349 -0.01046851 0.00013912 0.00309139 0.01736814 0.00109448 -0.00530285 0.00947796 0.00097491 -0.00332818 0.03877948 0.00270036 -0.01217426 -0.02272371 -0.00154977 0.00695803 -0.01026047 -0.00121124 0.00354375
0.08513571 0.32072654 0.02358198 -0.29158997 0.13536505 -0.25537426 0.43479794 0.45440841 0.10096829 0.01437138 0.07231588 0.53479778 0.07920210 -0.23902743 -0.03750920 -0.02903137 -0.26881965 0.01775388 0.59408370 0.54255839 -0.32788312 -0.37216685 -0.02286774 -0.06701500 -0.09226278 -0.25690408 -0.46427048 0.29510740 -0.28834132 0.14751129 0.00882974 -0.51655349 -0.20026584 0.14135780 -0.19253338 0.03239421 0.47085607 -0.20533689 0.22553069 -0.03846289 -0.02956310 0.25495385 0.10272588 -0.16153292 -0.38214771 0.22854762 0.20429716 -0.14453636 -0.12968183 0.38612194 -0.66065938 0.11098766 0.29855950 -0.11678167 -0.41237144 0.34155615 0.21595597 0.06822443 0.16589836 -0.40308529 0.14617683 -0.06250215 0.27813611 0.26810549 -0.51746087 -0.47383244 -0.73426734 0.07324601 -0.24507839 -0.01474257 0.50814163 0.02433380 0.06118155 -0.37483728 -0.48454412 0.00068500 -0.28768447 0.60344667 -0.22842203 0.09258678 0.13596657 -0.11767003 0.03921835 -0.05538188 -0.00265115 0.11599228 0.47757298 -0.70090939 -0.36125034 0.17328779 0.01125856 -0.22563636 0.61128739 0.04259476 0.25985905 0.46088586 -0.01317620 -0.00436703 -0.01399906 -0.01713443 -0.00549893 -0.01895957 0.00256281 0.00064279 0.00259742 0.04326732 0.01317792 0.04800066 -0.00484860 -0.00155173 -0.00518924 0.00276138 0.00075655 0.00303657 0.00370116 0.00116656 0.00419610 -0.01419362 -0.00430430 -0.01506200 0.01649984 0.00489886 0.01892556 0.00423419 0.00113597 0.00487475 0.00254579 0.00081833 0.00255211 0.01256387 0.00377582 0.01382458 -0.01557958 -0.00443314 -0.01666518 -0.00480210 -0.00134045 -0.00508287 0.02229312 0.00657410 0.02524704 0.00507530 0.00114262 0.00558601 0.02744590 0.00855529 0.03063163 0.00316221 0.00148750 0.00315181 0.00054442 -0.00026619 0.00035413 0.01227558 0.00373716 0.01438533 0.02447346 0.00770519 0.02798267 -0.01053086 -0.00322583 -0.01124145 0.01273402 0.00357637 0.01403496 -0.02544778 -0.00834238 -0.02826197 -0.03008118 -0.00857597 -0.03377676 0.02112243 0.00677685 0.02378544 -0.01250403 -0.00422940 -0.01425337 -0.00438361 -0.00217769 -0.00562910 -0.02363041 -0.00751011 -0.02603634 -0.05620178 -0.01738979 -0.06221272 0.00229224 0.00067098 0.00299912 -0.00672659 -0.00184170 -0.00722619
-0.37899136 0.14060729 0.06087619 -0.32780581 0.24349119 0.69823753 -0.15352216 -0.14834593 0.45150887 -0.10514786 -0.09786995 -0.25699956 -0.08528540 0.07192772 0.69432588 0.46913577 0.13236939 -0.21246488 0.02532426 0.05206406 -0.50745441 -0.13611247 -0.13100571 0.30420014 0.01393422 0.14034211 0.18026728 -0.59992902 -0.05342427 -0.20283810 -0.20245455 -0.45203337 0.16817812 -0.28877078 -0.00249196 -0.03228571 0.04911635 -0.13064705 -0.20672035 -0.17819169 0.04275946 -0.46850752 -0.10245085 0.39953298 -0.27630362 0.00387699 -0.50807902 0.02587532 0.49219811 0.27854820 -0.13796771 -0.19293855 0.15114721 -0.01985727 0.03393049 -0.10624109 0.14877025 0.32561098 -0.23524078 0.05649533 -0.05679460 0.23821431 -0.00558183 0.50601215 0.14726599 -0.53115006 0.37029360 -0.25836681 0.40033282 0.06515987 -0.01237682 -0.27943181 0.30415858 0.10322609 -0.08276633 0.09289436 -0.09853014 0.06942196 0.24392162 0.01442780 -0.36187488 -0.14903554 -0.17988936 0.09714621 0.12131839 0.15067494 -0.11649673 -0.25606956 0.00382016 0.56596497 -0.03437714 -0.11840084 -0.15191659 0.13099160 0.22252419 -0.07098351 0.00166216 -0.00421630 0.04665291 0.00101690 -0.00243260 0.02629905 0.00100461 -0.00323139 0.03602750 -0.00047171 0.00204501 -0.01749652 -0.00027372 0.00105994 -0.01247602 0.00039546 -0.00115053 0.01160527 0.00070422 -0.00162509 0.02100752 0.00029618 -0.00088874 0.01183895 -0.00067435 0.00248437 -0.02503681 -0.00127147 0.00221387 -0.02581417 0.00047394 -0.00221524 0.02195524 0.00028638 -0.00070165 0.00739033 -0.00006415 0.00004931 0.00062964 -0.00034491 0.00051732 -0.00529105 -0.00123723 0.00265295 -0.03413102 -0.00064863 0.00312014 -0.03330664 0.00104789 -0.00139923 0.01889440 0.00007652 -0.00038183 0.00574282 -0.00097838 0.00222561 -0.02933327 0.00006823 0.00005525 -0.00398219 -0.00029595 0.00156680 -0.01811145 -0.00069469 0.00164332 -0.01680720 0.00020332 -0.00189440 0.01821969 -0.00091797 0.00248098 -0.02594360 -0.00087251 0.00107752 -0.01570670 0.00005711 -0.00001069 0.00046068 0.00031765 -0.00168324 0.01984046 0.00119126 -0.00254697 0.03262302 0.00073983 -0.00213055 0.02463026 -0.00044734 0.00127333 -0.01264723 -0.00061810 0.00185484 -0.02037637 0.00065670 -0.00150506 0.01559948
0.17865908 0.38890908 0.10311867 -0.40406921 -0.13548842 0.39907954 -0.12313073 0.29193004 -0.09396388 -0.57376805 -0.28179819 0.85928393 -0.15707673 0.01006988 -0.19590790 0.58728540 -0.47447761 0.23547043 -0.13741384 0.21935740 -0.34384501 0.16012228 0.12814283 0.85614078 -0.09167567 -0.17277312 0.38456884 -0.17865395 0.09525875 -0.03501631 0.79464442 -0.30076517 -0.13638070 -0.27562986 0.35957384 -0.37445787 0.00628063 -0.03531052 0.49393378 0.01821321 0.15965309 0.21575605 0.03777792 -0.18193476 -0.26165670 0.32157186 0.43779009 -1.07393074 0.19472482 -0.05112313 -0.63226627 0.01632831 0.31868446 0.17053428 -0.10350583 0.37622679 -0.53858954 0.06116016 -0.09728662 -0.05472734 -0.12377568 0.28897170 -0.04775683 -0.33177251 0.23465074 -0.63601824 0.27917015 -0.57252836 0.22349570 0.36330914 0.13774935 -0.33806039 0.42332273 0.24155377 -0.30506572 -0.01902546 0.22990491 -0.49596943 0.03597393 -0.26003229 0.41360852 -0.17066293 -0.46758394 0.46028838 -0.10050222 -0.13090170 0.31812224 -0.14617192 -0.25200753 -0.26648612 -0.01524847 -0.29168338 -0.19315496 -0.52646098 -0.21273199 0.88985282 -0.00913340 0.01679145 0.04942214 -0.00295242 0.00600774 0.01734781 0.00277121 -0.00526519 -0.01564753 -0.00144510 0.00292891 0.00822344 0.00051752 -0.00080080 -0.00193578 -0.00052240 0.00158688 0.00490324 -0.00055756 0.00080997 0.00335687 0.00619427 -0.01226057 -0.03439814 -0.00228323 0.00404995 0.01184225 0.00051558 -0.00149548 -0.00455766 -0.00288135 0.00591225 0.01753156 0.00143422 -0.00224283 -0.00636096 -0.00220101 0.00428422 0.01286743 -0.00315974 0.00618111 0.01808855 0.00919157 -0.01774059 -0.05013331 0.00995299 -0.01888852 -0.05426440 -0.00360477 0.00732478 0.02003211 -0.00280270 0.00570668 0.01654753 0.00082468 -0.00164129 -0.00423809 -0.00285240 0.00446516 0.01324792 0.00421088 -0.00868903 -0.02332396 0.00528283 -0.01051376 -0.02933849 -0.00131286 0.00289902 0.00712906 0.00205232 -0.00358099 -0.01013143 0.00521431 -0.00990509 -0.02891097 0.00212720 -0.00387163 -0.01027589 0.00416695 -0.00830077 -0.02420433 -0.01033212 0.01924290 0.05576051 0.00966303 -0.01846230 -0.05276770 -0.00039245 -0.00008092 0.00107213 0.00114573 -0.00167830 -0.00497575 0.00104795 -0.00205573 -0.00501656