-0.00457136 0.03349261 0.00331853 3.54541491 0.00196756 0.00359071 0.02749392 3.55111871 0.01691795 3.55282163 3.56970758 -0.05441741 0.03273947 -0.00680191 3.54363176 3.50991472 0.04317312 3.56680936 -0.06885158 3.56440504 3.56523521 3.56802775 3.50969593 3.55913585 -0.00639872 1.79829542 1.73930840 3.57397846 1.79074148 1.82683218 0.02160244 5.37870398 1.76221641 3.54215738 5.37795654 1.74025806 0.01353050 1.77297090 5.33822457 3.56694420 1.76241455 5.31883750 0.00087825 5.31861052 5.31077354 3.57071511 5.36766883 5.36982050 1.77362840 -0.02462735 1.75556498 5.32080893 -0.00312059 1.73732592 1.80179361 3.57297022 1.78640076 5.31505947 3.55672727 1.77539793 1.80659217 -0.01212695 5.33544574 5.34864816 -0.02315158 5.40153860 1.75476298 3.56674037 5.34678479 5.26877224 3.56340525 5.34652148 1.75117540 1.78361761 -0.06102171 5.35746250 1.78034975 0.02544996 1.76277917 5.38571761 -0.04762387 5.39553843 5.29813174 -0.01208577 1.73604101 1.75336899 3.53066557 5.34553331 1.77506499 3.57357716 1.72217322 5.25341039 3.51707498 5.32394422 5.29460135 3.50554971 0.02200906 0.10291262 0.29830935 3.58126058 0.07106513 0.29097607 0.06978643 3.63476262 0.30241903 3.57632045 3.60909077 0.24861415 -0.00124017 -0.07572703 3.24716239 3.48468130 -0.03268186 3.28138543 -0.06609664 3.49659585 3.26784515 3.55222728 3.44031276 3.26098405 0.01216592 1.86956527 2.03858727 3.58788101 1.87073490 2.10818803 0.08680198 5.43192165 2.05173336 3.58234768 5.45447575 2.02498818 -0.00726093 1.71465352 5.04582782 3.53712562 1.69568206 5.02842490 -0.05008776 5.25596881 5.02842667 3.54674007 5.25106570 5.08861885 1.81206363 0.05139552 2.04422479 5.33466620 0.07530799 2.02496533 1.82210643 3.62097944 2.09197202 5.31880316 3.61216971 2.06758373 1.78597314 -0.07356005 5.03933930 5.31894065 -0.08327861 5.11341855 1.70939338 3.48190822 5.06417498 5.27690370 3.47374538 5.06050344 1.76105980 1.87629782 0.22646570 5.38602490 1.85802995 0.31308483 1.80145962 5.46371925 0.23564825 5.39172213 5.39086855 0.26224519 1.73190046 1.66236009 3.24351590 5.33605266 1.72438004 3.27274053 1.68978101 5.18634680 3.22095269 5.29397352 5.22581899 3.21573122
-0.00917254 0.02343227 -0.02854381 3.52102931 -0.00410946 0.00261634 -0.00048104 3.54891956 -0.01345779 3.52768320 3.48295478 -0.01731027 0.02374025 -0.03101969 3.51123532 3.52165110 0.02828984 3.55934366 -0.00301110 3.56269923 3.56432940 3.51467433 3.58705493 3.56836242 0.02003105 1.74714879 1.75898603 3.52109253 1.77682941 1.73119621 0.02603287 5.31579615 1.75768767 3.55820168 5.34674161 1.76477474 -0.00893306 1.78621604 5.35619495 3.55463056 1.77053201 5.36001713 0.02704547 5.27408658 5.32313891 3.57514270 5.33595125 5.29088505 1.73107129 0.00279134 1.78044447 5.30490291 -0.00934840 1.74171756 1.77553009 3.47712490 1.74921934 5.34062547 3.52672587 1.75959424 1.72689123 0.03608219 5.36269875 5.33958588 0.04799342 5.32017361 1.76843641 3.54479029 5.31152138 5.33677707 3.61180506 5.34946194 1.73409138 1.74195437 -0.03171183 5.33309660 1.76590502 0.02019548 1.72040417 5.30791983 -0.01883429 5.35757837 5.31282705 0.02469472 1.77430623 1.77128297 3.54819736 5.28899996 1.78828742 3.50315905 1.77873998 5.31520258 3.54409172 5.34625279 5.35805363 3.48224748 -0.30622458 0.06613972 0.00395048 3.22355316 0.01648232 -0.02357186 -0.30031991 3.58206918 -0.02188849 3.23291681 3.50023144 -0.03431486 0.32341137 -0.06754590 3.52094299 3.80945606 -0.02951968 3.57575634 0.29695257 3.53414591 3.57250170 3.81510285 3.59494377 3.57702463 -0.27860150 1.78762499 1.73810394 3.21407447 1.80610386 1.70669960 -0.27029593 5.33439712 1.74717995 3.26241255 5.36631527 1.74082011 0.28659065 1.75001194 5.37415863 3.85166450 1.78096504 5.36916458 0.31900231 5.24428841 5.32392342 3.87653943 5.31584017 5.30625915 1.44764724 0.05103160 1.76211564 5.01017955 0.03732280 1.71530259 1.47871605 3.54280741 1.77222612 5.05147126 3.57856713 1.73408630 2.02598643 0.01457656 5.40754679 5.64550416 0.00447411 5.31469519 2.05988305 3.50208512 5.32055092 5.63363866 3.58885042 5.36671832 1.44523889 1.76891358 -0.04258485 5.02793347 1.77440618 0.03766486 1.42739739 5.34157063 0.00394345 5.06440831 5.34113316 0.01510303 2.07023593 1.72881596 3.56679606 5.58314053 1.75240995 3.52961027 2.07519344 5.28551098 3.52193529 5.63725502 5.33448211 3.47986875
0.02378901 -0.00916547 -0.01653323 3.52399175 0.03101301 0.00007159 0.01341979 3.52108604 0.01074389 3.59176047 3.46582456 -0.01060975 -0.04260886 0.01570391 3.56317997 3.53242224 0.01012501 3.52118778 0.01331944 3.52747721 3.57762560 3.62805739 3.57799484 3.56527171 -0.03342322 1.75253165 1.74830921 3.50704163 1.73634654 1.76496818 -0.01430254 5.34579052 1.76763219 3.53164300 5.30342095 1.81848784 -0.02967852 1.79699515 5.34770478 3.56162653 1.71865128 5.33066619 0.00935531 5.28583783 5.28916888 3.55423994 5.33474015 5.30804448 1.71248817 -0.03686232 1.78905781 5.37018814 -0.00142514 1.81962729 1.80805235 3.52610324 1.74362516 5.37513476 3.53340958 1.78472314 1.79718518 -0.02127041 5.30883332 5.32539485 -0.00147033 5.30261749 1.74761843 3.52535477 5.38753085 5.31241996 3.54090423 5.37184030 1.79972640 1.83486318 0.01462301 5.36170505 1.82108705 -0.02459814 1.76132845 5.29261808 0.06938175 5.34014372 5.35769411 -0.00842564 1.74363522 1.76780051 3.53351226 5.31103682 1.76604304 3.56213089 1.78557765 5.34686957 3.56790993 5.32456879 5.31000808 3.54723379 0.08119260 -0.09065305 0.26567983 3.57267201 -0.05965816 0.28432320 0.07792790 3.43532199 0.29109982 3.66405519 3.37361823 0.27485501 -0.08178349 0.11566537 3.29244080 3.45993698 0.09292088 3.24747809 -0.04142198 3.59603724 3.28432409 3.56607560 3.66474309 3.28125592 0.04404609 1.67540012 2.02714137 3.57138168 1.65442598 2.04471868 0.04805591 5.26282458 2.05327153 3.58208074 5.23163866 2.10093671 -0.08793022 1.87906806 5.06867323 3.49522065 1.80170114 5.05350301 -0.03648140 5.38168365 5.00982658 3.50276828 5.39642265 5.01405138 1.75890986 -0.11057426 2.07066776 5.44134461 -0.10398072 2.09430070 1.89062819 3.43051146 2.01557747 5.43525236 3.45156828 2.06790904 1.73667488 0.05259793 5.02338438 5.27588234 0.07102172 5.01432504 1.69265241 3.60263815 5.09436996 5.25006172 3.61137113 5.09209654 1.86484194 1.75890180 0.30300164 5.43851676 1.73964476 0.25672377 1.81486127 5.21508752 0.35973315 5.41272199 5.25453993 0.26205952 1.66787556 1.83345808 3.24991599 5.27408219 1.85803849 3.28302664 1.73336899 5.44629815 3.29037488 5.28321057 5.38118944 3.26524521
-0.01709645 0.00647256 0.01834225 3.55227672 0.00319152 0.01739588 0.02208288 3.55798706 -0.02990864 3.49990859 3.57890217 -0.04656671 -0.00725018 0.05337194 3.56984504 3.56252776 -0.01620635 3.53128162 0.04413708 3.60033148 3.57311916 3.54369302 3.59026993 3.53784458 0.04194866 1.79156076 1.78889635 3.55722373 1.75974868 1.74364280 0.01145267 5.41836438 1.79388185 3.56237702 5.35734415 1.77961518 -0.02723563 1.78266265 5.31239184 3.53280516 1.74147093 5.30253426 -0.02576719 5.31615218 5.36367868 3.53447028 5.31929401 5.35014348 1.73457312 0.03533782 1.76699733 5.34185904 -0.01927352 1.77218230 1.78501603 3.54641780 1.82248689 5.34545883 3.53328240 1.80770521 1.82605076 0.00589449 5.34115728 5.35332582 -0.00047875 5.30668300 1.77779682 3.54399680 5.31717598 5.33912882 3.57510444 5.29322655 1.78822364 1.83448993 0.00974267 5.30358007 1.72335684 -0.04458189 1.76504307 5.32467616 -0.00076755 5.30167433 5.32447079 -0.01314874 1.82780409 1.78682654 3.55553573 5.31843267 1.81881901 3.58946891 1.76392987 5.36719762 3.53401845 5.38808489 5.32678239 3.49966850 -0.30913176 -0.05781072 -0.00185042 3.26635023 -0.10041817 -0.00042047 -0.24749459 3.42381737 -0.03300620 3.22961684 3.43735156 -0.03165752 0.25474904 0.21180232 3.54203785 3.84022979 0.10902016 3.53709790 0.30672128 3.74494553 3.58230059 3.80509366 3.72299062 3.54028135 -0.21954037 1.64266333 1.78446783 3.28324266 1.62279668 1.74027327 -0.26397511 5.29641911 1.80226259 3.29360015 5.23232143 1.78515716 0.24399025 1.92299567 5.31194748 3.79257537 1.88152940 5.30422125 0.24678753 5.45013140 5.38862883 3.80307041 5.44850911 5.35509111 1.46994114 -0.09724891 1.76024700 5.08042445 -0.16109173 1.74233886 1.52069917 3.41599891 1.82229852 5.06881555 3.42791089 1.79289809 2.10192526 0.08990560 5.36594852 5.62289858 0.12961402 5.30570348 2.04900468 3.68209377 5.31252073 5.62239104 3.69714257 5.29830143 1.52784575 1.68961519 -0.02562671 5.03115910 1.61689910 -0.04810112 1.49440665 5.19208021 -0.01288763 5.02988597 5.20441898 -0.00538460 2.08877838 1.94195760 3.54982606 5.58699415 1.96217920 3.58056647 2.03536451 5.50167782 3.53461289 5.66714755 5.44606546 3.53047567
-0.01434024 -0.00198743 0.02020099 3.56972114 -0.02883143 -0.07067441 -0.00513396 3.54675491 0.01457429 3.57468318 3.59552760 -0.01126933 0.03248581 -0.03694339 3.53877529 3.58123436 0.04745861 3.52349948 -0.00309789 3.55339565 3.58124963 3.51691837 3.53375041 3.53807546 -0.00049864 1.77167117 1.72799239 3.55646702 1.78297979 1.75768318 -0.03344392 5.29578823 1.75760030 3.56495472 5.32856619 1.80823281 0.00029831 1.80846269 5.32085945 3.53857160 1.81681461 5.30500628 0.04303906 5.37085417 5.30113000 3.55233198 5.35972717 5.35846770 1.82315716 -0.00152733 1.79232415 5.29946610 0.00971044 1.81100916 1.77479820 3.53490530 1.70013574 5.30998472 3.59618609 1.76019375 1.76994534 -0.02030475 5.23498827 5.28587437 -0.00269698 5.28947033 1.76148022 3.55890703 5.31362562 5.34989171 3.56409625 5.30420060 1.71168006 1.84162221 0.01236284 5.35327129 1.78535219 0.05871458 1.76589821 5.31863588 0.03805806 5.36886617 5.32509216 0.01431180 1.78367223 1.78413309 3.48669467 5.34588992 1.79512692 3.52491437 1.77596312 5.33282971 3.60962490 5.31522140 5.31999934 3.56346063 0.11594331 -0.24108964 0.13513765 3.65472127 -0.28915121 0.05930985 0.06868913 3.28117873 0.13311403 3.66061062 3.33818963 0.12320482 -0.02114012 0.21887311 3.39052813 3.48932513 0.29408245 3.38554253 -0.10524539 3.80985611 3.46733117 3.40292505 3.79375282 3.44345171 0.10327693 1.51191822 1.84658894 3.67235325 1.53183669 1.88251345 0.04328636 5.03977232 1.89531031 3.67000920 5.08925083 1.93969099 -0.08808962 2.05862606 5.17561685 3.44478935 2.07086476 5.18225808 -0.06109029 5.61883158 5.15560596 3.45220484 5.60592912 5.23706864 1.91488539 -0.25016471 1.92122197 5.40189242 -0.25003582 1.91977790 1.85858274 3.27537665 1.81196777 5.37493262 3.32410657 1.83995353 1.65737388 0.22506733 5.10959585 5.17467261 0.23794953 5.14947951 1.67206747 3.82022900 5.17992908 5.25193448 3.80740244 5.16537523 1.83540344 1.58457218 0.11764867 5.42842987 1.50858101 0.16099598 1.86189128 5.06343842 0.16459800 5.45989128 5.07372236 0.17318954 1.69556307 2.03775434 3.35978267 5.22171525 2.02990262 3.40519783 1.67743472 5.58979144 3.48168156 5.24325535 5.58448936 3.42443352
-0.01716083 0.00571247 0.01820445 3.54628136 0.01164583 -0.01977871 -0.06146825 3.56006709 0.00474761 3.61607375 3.55129979 0.02313900 -0.06105642 -0.03753105 3.51383914 3.58757577 -0.00396145 3.55853482 0.00356455 3.56616526 3.57479793 3.57483590 3.55436434 3.57249023 0.00486402 1.80490047 1.76316110 3.56020858 1.79202615 1.78153506 -0.00917091 5.26233620 1.76235756 3.54782322 5.34532188 1.79409027 -0.00415282 1.76847412 5.34076623 3.56509993 1.82594722 5.35376288 -0.00702435 5.28651763 5.33435670 3.52794926 5.32874855 5.34579350 1.81567145 0.03342712 1.77151255 5.32973153 0.01592575 1.77747446 1.77356659 3.59308279 1.72234874 5.35226008 3.54402486 1.75612350 1.77587964 0.03226456 5.40528019 5.33134455 -0.03119907 5.34570850 1.71666303 3.49756037 5.31648755 5.32869968 3.55171588 5.32130593 1.72183473 1.76514480 -0.00266766 5.39656767 1.79651102 -0.03163617 1.79084133 5.30963770 -0.02423669 5.36957001 5.30730512 -0.03438490 1.77024960 1.73416760 3.56597336 5.33047686 1.74036067 3.53342345 1.80957356 5.28333051 3.56390882 5.32712318 5.35294968 3.54084754 -0.22619303 -0.17184350 -0.10892501 3.34921733 -0.15583520 -0.16801472 -0.25693807 3.35963814 -0.12842513 3.41220496 3.38079847 -0.10421060 0.13063101 0.13981404 3.66677614 3.79481178 0.16110919 3.68161002 0.18539265 3.77435146 3.69188660 3.77223707 3.71814468 3.72355166 -0.19609991 1.62504083 1.61896593 3.35190672 1.64398060 1.61467089 -0.21406278 5.10430183 1.60524160 3.37101547 5.14660953 1.67369090 0.20148491 1.92375567 5.49707058 3.73979641 2.01801991 5.50654304 0.18374474 5.47384454 5.45635933 3.72394243 5.49827279 5.48341948 1.61509303 -0.11903349 1.61663025 5.15241571 -0.12576644 1.60366446 1.57811281 3.41604616 1.58227377 5.15792865 3.37816739 1.60831830 1.98157870 0.20167044 5.54651881 5.52246516 0.13776737 5.49770439 1.91529138 3.66766722 5.46127454 5.52999932 3.70785459 5.47423362 1.51990715 1.57862078 -0.10728686 5.19077611 1.61687811 -0.13811711 1.60991128 5.13922471 -0.19184446 5.15364448 5.14283322 -0.18793599 1.97089185 1.88763031 3.72189443 5.52745911 1.91679416 3.67654862 2.01956687 5.44776385 3.70426755 5.52857478 5.51376864 3.69070489
-0.00930516 0.01818002 0.00983874 3.60198667 0.00467132 -0.01907410 -0.01233141 3.48376915 0.00623287 3.54158880 3.56093211 -0.05771155 0.04054929 -0.01022753 3.54988713 3.53192670 -0.00755598 3.58089958 0.02121080 3.51405642 3.58985573 3.59719490 3.47641715 3.56962996 -0.05095653 1.85809955 1.77800763 3.52595346 1.76332942 1.73949681 -0.01846983 5.32024884 1.75019581 3.51657107 5.32201004 1.73768217 -0.02214815 1.79521528 5.29621313 3.48895925 1.74708082 5.32748316 0.00256810 5.31468458 5.30296718 3.60579990 5.31792714 5.28883732 1.82548217 0.01923334 1.82261890 5.37140415 -0.00898035 1.72990621 1.80081633 3.50896876 1.76301759 5.33255513 3.58906254 1.78037376 1.79564050 -0.00359057 5.25673027 5.27519946 0.00824551 5.34239248 1.73124228 3.52801762 5.28930152 5.32785699 3.52378104 5.34771101 1.82032959 1.79186402 -0.03745196 5.32449045 1.81000381 -0.02828858 1.77934904 5.30395759 -0.03009416 5.33861524 5.32278593 0.04573168 1.82959506 1.84414051 3.53814584 5.34660768 1.73845184 3.53512798 1.72838247 5.32056874 3.58481709 5.29059013 5.30289911 3.55841049 -0.17350468 -0.11033015 0.21336937 3.46773284 -0.13561660 0.19549282 -0.15809791 3.33554475 0.22810583 3.40436211 3.46244688 0.19082343 0.23528626 0.09173167 3.33895747 3.68272481 0.14911293 3.37932594 0.15324480 3.63619470 3.35209387 3.78819930 3.60781618 3.36880920 -0.18925583 1.72214269 2.00936813 3.38767683 1.62930907 1.96355114 -0.16230202 5.17514234 1.97592139 3.35285681 5.18559055 1.95013334 0.12037796 1.93414007 5.07022439 3.59795235 1.92903078 5.11141073 0.13732550 5.45503145 5.07076085 3.75648234 5.43616072 5.05864918 1.71134161 -0.10336070 2.07324694 5.22554936 -0.14775814 1.96246397 1.66369168 3.36919108 1.98982025 5.22856652 3.46939139 2.03645752 1.90716660 0.14663172 5.03085061 5.41588188 0.14869219 5.11222478 1.86861409 3.67291785 5.06326766 5.46401328 3.65884446 5.12671559 1.68796004 1.65312701 0.19402629 5.18779667 1.65992455 0.19304474 1.63173681 5.18166061 0.20317338 5.18744521 5.20829840 0.28279514 1.97025723 1.97916327 3.31210294 5.48842617 1.87351294 3.30511896 1.84771125 5.44515374 3.33056775 5.43339735 5.43923239 3.33050353
-0.01599318 0.03294755 -0.03063182 3.55247295 0.01250102 0.02143319 -0.00364191 3.50932210 0.03114596 3.57820872 3.54073170 -0.01396773 0.04095074 -0.01963590 3.56515600 3.55683591 -0.03278388 3.52854112 -0.02261871 3.54541100 3.50049852 3.50676449 3.54824259 3.51470336 0.01763865 1.77709863 1.79096961 3.57359995 1.75704630 1.81242112 -0.06105094 5.30992607 1.77149224 3.53126581 5.34023304 1.78867557 0.00046136 1.78475155 5.32165437 3.58871489 1.70428280 5.35609355 0.01381597 5.34117736 5.34377243 3.55783190 5.34497837 5.28707443 1.79029943 -0.03675989 1.73047079 5.34305406 -0.04359519 1.73772706 1.77032874 3.56781620 1.83481773 5.30354809 3.54230586 1.81924684 1.76075885 0.03807488 5.31849485 5.37980693 -0.00659568 5.33626818 1.72981165 3.53109538 5.37121583 5.32835781 3.58553312 5.30690749 1.82690655 1.80047712 -0.03067212 5.31861050 1.78314172 -0.01506555 1.74112492 5.32060496 0.01426819 5.29861929 5.29897758 0.03400267 1.75020047 1.78536219 3.56642029 5.34962247 1.77250022 3.61732773 1.77461696 5.31846057 3.49913319 5.35744284 5.32977926 3.55591444 0.09729701 0.30855951 -0.02374759 3.65338894 0.29065724 0.00373058 0.07642609 3.80128093 0.03310308 3.68193890 3.82246613 -0.02651764 -0.06080455 -0.29446330 3.57846242 3.43839621 -0.30631653 3.53831885 -0.11212667 3.26033416 3.51915614 3.43197348 3.26195484 3.52191914 0.12366805 2.06463795 1.74070671 3.68716230 2.03461286 1.79417856 0.04331408 5.58881469 1.75933117 3.64185063 5.61211505 1.76269365 -0.10082434 1.50243882 5.36316910 3.49509816 1.42041241 5.37860576 -0.08381673 5.05695545 5.34954558 3.45360980 5.05929622 5.31186775 1.88477780 0.24654587 1.70886066 5.44118554 0.23999641 1.72898564 1.88432193 3.85088841 1.84604655 5.41874751 3.82355049 1.80580677 1.63787457 -0.23086820 5.33245193 5.27687034 -0.28879041 5.33982642 1.62500674 3.24844259 5.38829276 5.22095458 3.29693933 5.31635435 1.90633049 2.08473528 -0.04661323 5.42729769 2.05265401 -0.02705608 1.84198163 5.61171342 0.00728624 5.39757388 5.57751474 0.02102281 1.69069705 1.49877512 3.57196198 5.25230982 1.48504694 3.63867686 1.67346961 5.03897326 3.52069983 5.25718892 5.04543255 3.55292590
0.00104299 0.01791020 -0.00256762 3.51617394 0.00984625 0.00825187 0.02551122 3.53213280 -0.00359368 3.62763902 3.51449278 0.01109347 0.01190360 0.02822209 3.51925466 3.54030410 0.05748481 3.59136331 0.01713755 3.56926715 3.54313456 3.54483616 3.56525527 3.56823241 -0.01377007 1.76897731 1.75328019 3.50059564 1.83775257 1.73493009 -0.02789389 5.32935257 1.83154158 3.55448918 5.32631741 1.76301220 0.01325032 1.79048068 5.36153321 3.53648043 1.76151267 5.32805562 -0.01197268 5.34171268 5.28248514 3.58990161 5.34682057 5.30606824 1.76107793 0.02611221 1.74298829 5.31960533 0.02705476 1.79222434 1.76157862 3.58773525 1.72078959 5.35129471 3.57146917 1.78854205 1.75230189 -0.02956572 5.33560174 5.33519548 -0.02028015 5.27602421 1.79629389 3.53494899 5.34073614 5.32264799 3.60312503 5.34462651 1.76905562 1.81390409 0.00732135 5.32509486 1.80046589 -0.02786695 1.77703319 5.32680353 0.00827842 5.34504943 5.36434363 0.08491437 1.73587789 1.70272846 3.53339363 5.29917138 1.71683740 3.61358625 1.80175433 5.35908135 3.59084643 5.27219019 5.30373071 3.57241689 0.22924215 0.03186021 0.20018719 3.73909877 0.02327496 0.21835368 0.24025002 3.55740026 0.20293199 3.83275426 3.55042246 0.22428133 -0.22185778 0.00790249 3.32722338 3.33913887 0.03597236 3.36321168 -0.20145638 3.54559362 3.33391482 3.32973867 3.54086530 3.36084483 0.20864889 1.79960785 1.95380594 3.71524829 1.85607245 1.93840157 0.17915562 5.33315070 2.03790416 3.77053656 5.34543999 1.96003942 -0.19708718 1.76945561 5.15855839 3.30297032 1.73012040 5.13435492 -0.24730323 5.31293949 5.10489358 3.35677271 5.34217886 5.12098693 1.97081478 0.06568587 1.95508791 5.49840559 0.00753103 2.02469334 1.97630392 3.61461262 1.92650826 5.57809058 3.60850998 1.99317156 1.53156991 -0.08007567 5.13607832 5.11903248 -0.04579257 5.07165016 1.57497909 3.49746382 5.13239853 5.09850511 3.56468516 5.14079668 1.98151105 1.84320106 0.22515303 5.53451389 1.84035010 0.17608730 1.98744825 5.33973098 0.21644155 5.56019871 5.38876975 0.29374872 1.51432278 1.69197125 3.33455044 5.07234588 1.67573082 3.40471573 1.56326288 5.29122900 3.43746815 5.05138538 5.27810515 3.36021984
-0.03826708 0.02179589 0.02805493 3.58041027 0.03334298 -0.02024516 0.00868976 3.51495232 0.00968244 3.56324743 3.50945611 -0.00005333 0.03025229 -0.03719825 3.59020682 3.54685119 -0.01764584 3.57785012 -0.01934794 3.62403436 3.52302549 3.61964285 3.57548526 3.53962441 -0.00241667 1.76333555 1.81020481 3.54747005 1.80768153 1.76935868 -0.03048323 5.32325238 1.81557511 3.51738827 5.32384050 1.78939007 -0.01858791 1.77341010 5.33092233 3.56893497 1.78927983 5.33907834 -0.02900538 5.33055499 5.31324184 3.55637752 5.29507212 5.33725298 1.79381455 -0.01030233 1.80261490 5.31483784 -0.04113513 1.79274938 1.77409513 3.55861171 1.79362657 5.35426479 3.47057261 1.77756145 1.72814466 0.00998029 5.35194306 5.30980826 0.01002970 5.33660574 1.78364074 3.59426967 5.31275389 5.36159710 3.55478867 5.30442808 1.70161350 1.81161711 0.00262503 5.30398850 1.83199169 -0.02699236 1.78629613 5.32474918 -0.02962303 5.34669493 5.27612415 -0.03146406 1.75436566 1.79223271 3.53870089 5.33159483 1.82672357 3.54249372 1.81001559 5.31603212 3.54929991 5.31551871 5.29321434 3.53496694 -0.15145163 0.12384977 0.28720163 3.45828640 0.14562564 0.23159084 -0.10801442 3.60626855 0.27536552 3.43549753 3.58071382 0.26283925 0.14589632 -0.15008480 3.33938916 3.66636309 -0.11020537 3.31988193 0.09268072 3.51933007 3.26814879 3.72902568 3.46719137 3.28122899 -0.09194204 1.85130685 2.07713936 3.43794052 1.91226551 2.03219358 -0.11662745 5.41130582 2.08931164 3.40617840 5.41892603 2.05099668 0.09990617 1.67383725 5.06986790 3.65348599 1.68968604 5.06799580 0.07836340 5.23486210 5.04799603 3.61178232 5.16004852 5.07329555 1.68307969 0.10304410 2.05640879 5.21487043 0.03154174 2.06155971 1.66145902 3.67028412 2.05437341 5.24602086 3.57664613 2.04470909 1.83899660 -0.09236150 5.08530624 5.41647393 -0.11404934 5.08834092 1.88348862 3.49798863 5.04519267 5.42454631 3.43561425 5.04192459 1.61028549 1.88706768 0.27088795 5.18101631 1.94258198 0.22704893 1.68302618 5.44016837 0.23007530 5.18151424 5.33730423 0.21021476 1.86455174 1.67882690 3.29263615 5.43357659 1.75105477 3.27223216 1.92641172 5.21774716 3.29088528 5.41969210 5.17983260 3.27301218
-0.00427497 0.05441030 -0.03418552 3.57779948 0.01857028 -0.00713289 -0.02030740 3.51194330 0.00600311 3.59595425 3.57094497 -0.02824446 0.05704713 -0.02578944 3.53529285 3.52301683 -0.03386284 3.54715954 -0.02700724 3.55660018 3.52570189 3.55575760 3.56635970 3.56120747 -0.01639851 1.71447095 1.80275817 3.53116368 1.75359881 1.77639796 -0.00943372 5.38329745 1.80082111 3.52960151 5.31796547 1.75412451 0.04905124 1.80094594 5.36547454 3.50382682 1.74309346 5.26696582 -0.00894792 5.30584446 5.32564205 3.57176196 5.32833600 5.33105087 1.78666223 0.02537591 1.83416741 5.34552517 -0.05309285 1.74372758 1.80293541 3.53209606 1.78739912 5.34161673 3.56453635 1.78874266 1.76201031 0.02485734 5.31584125 5.33891401 0.05428175 5.33305187 1.77412275 3.56120077 5.29458083 5.35531714 3.56300705 5.33990509 1.79494034 1.80422960 0.01263317 5.32790214 1.69616512 0.02524695 1.75078907 5.34596504 0.02458262 5.32456027 5.29593684 0.00211306 1.79441089 1.76992849 3.53411755 5.29919945 1.78617097 3.52080712 1.74954157 5.30794385 3.56884995 5.31521941 5.28161994 3.54409727 0.00611740 0.05951685 0.27141078 3.56454085 0.02312363 0.29476964 -0.01480181 3.50982150 0.30391242 3.59709928 3.55455711 0.26629524 0.03926718 -0.02619294 3.23653329 3.50987822 -0.04078342 3.25213701 -0.02935432 3.53886755 3.22636181 3.54361943 3.55945712 3.25928000 -0.01317161 1.71650819 2.10283524 3.53657633 1.75568715 2.07388779 -0.00232941 5.41778039 2.09466459 3.53214561 5.32365682 2.05454405 0.03984270 1.79564892 5.07002108 3.48972680 1.73793468 4.96850784 -0.02496596 5.29641164 5.03051283 3.58009070 5.33683491 5.03419143 1.77757607 0.04298591 2.14382712 5.34491296 -0.03503850 2.04375024 1.81364061 3.53491236 2.09118827 5.35587969 3.57089028 2.08847284 1.76151627 0.02802766 5.00944450 5.34883698 0.03471482 5.03419249 1.75060799 3.58726206 4.99350834 5.34077073 3.56122468 5.04219768 1.81035763 1.79846081 0.31352433 5.31689768 1.68122373 0.32941699 1.76791406 5.34056171 0.32734909 5.36251271 5.27301165 0.29965276 1.78291889 1.76435454 3.23451897 5.29236276 1.77338170 3.22004979 1.75694294 5.28163996 3.27501099 5.30209042 5.27162994 3.23711761
-0.00323421 0.02218851 0.02015674 3.49898846 0.00821604 0.03442574 0.02084712 3.51201584 0.01924823 3.53059614 3.57046398 -0.02467887 0.03029527 0.06023121 3.62512007 3.55286438 0.05207852 3.57160789 0.00241876 3.52525217 3.58650810 3.56554238 3.57213646 3.49564048 -0.00776640 1.76647211 1.81026763 3.54616993 1.78117998 1.81278045 -0.04056561 5.35072955 1.81325922 3.58088238 5.35958609 1.80210571 0.06551131 1.72712802 5.28324580 3.53328119 1.83965887 5.33654633 0.00807643 5.33804974 5.33203428 3.57019344 5.36076598 5.35779399 1.83313822 -0.01802300 1.79729229 5.34038288 0.02928478 1.72192847 1.79709928 3.59393758 1.76297599 5.34250017 3.49820390 1.78237148 1.75416766 0.01634808 5.32537441 5.27895083 -0.05719588 5.31779685 1.72991317 3.55316144 5.28458777 5.36854024 3.60913132 5.30933636 1.82374084 1.79925275 -0.04430780 5.29295963 1.75006203 0.00466039 1.73229198 5.30122252 0.02986411 5.33197790 5.29420841 -0.05635893 1.77102201 1.78020003 3.53949804 5.31158174 1.77017570 3.60006761 1.81509360 5.38660258 3.50871988 5.34732269 5.28693541 3.57541158 0.03600607 0.31094353 0.07310012 3.53968446 0.29963315 0.09323552 0.07156367 3.80477538 0.09815976 3.58101109 3.85996730 0.03677685 -0.04995414 -0.22835144 3.58154187 3.52510922 -0.24597802 3.50018844 -0.04081026 3.23113889 3.53352854 3.52322274 3.27348350 3.43202838 0.04375286 2.05503664 1.87662364 3.59060532 2.06615722 1.88153777 0.00676312 5.64871586 1.84105063 3.62430187 5.64937966 1.85920779 0.03327773 1.42950457 5.22163138 3.48122675 1.54392205 5.27284563 -0.03527733 5.04835597 5.27089148 3.52927052 5.06879332 5.29820444 1.87558715 0.27927170 1.85768006 5.39019242 0.31865658 1.78856793 1.83265484 3.88215067 1.83231611 5.38653873 3.78978885 1.82359370 1.70721754 -0.27856559 5.25925649 5.23649059 -0.34676265 5.25162908 1.69476130 3.25804138 5.22436338 5.32764685 3.32309513 5.26153821 1.87316714 2.09139325 0.01370802 5.33608442 2.03986692 0.05050842 1.79120803 5.59906143 0.04205685 5.42617286 5.58272986 -0.00986687 1.71599708 1.49466726 3.46996067 5.27192648 1.48410549 3.54247807 1.77217728 5.09382045 3.44720281 5.30732722 5.00395590 3.51903968
-0.04787728 0.01952934 0.00989134 3.56106836 -0.00487685 -0.01324615 0.05306782 3.49940183 -0.02268789 3.57111511 3.57466053 0.02952513 -0.00754400 -0.07059554 3.55972729 3.57068646 -0.00552760 3.48450808 0.02458472 3.56264457 3.55670883 3.53674283 3.50699675 3.55305088 -0.00807450 1.74823511 1.77134575 3.48753704 1.82258641 1.81189393 -0.01455404 5.30186047 1.78743058 3.53562992 5.31535555 1.74426262 -0.01316254 1.82270625 5.34021031 3.55256264 1.82466581 5.28534266 -0.04407955 5.29215021 5.28363560 3.57766879 5.33555280 5.32640274 1.77947008 -0.00260752 1.77308035 5.34072448 -0.01795666 1.74599149 1.75860510 3.52686514 1.74752990 5.35849270 3.54781642 1.78327195 1.75527533 -0.00575092 5.31328943 5.30453790 -0.01543123 5.37475098 1.76395078 3.56361855 5.29985788 5.32873038 3.54931236 5.30735321 1.74222426 1.78721761 -0.03028509 5.32354024 1.80060234 0.00118891 1.72497929 5.29138464 0.05323104 5.26654186 5.32271873 0.02063509 1.78264375 1.75472941 3.61231156 5.28855059 1.77464963 3.56379142 1.77737872 5.31122423 3.55046068 5.29408008 5.34979496 3.54611953 -0.03427634 -0.08986740 -0.26747604 3.59316818 -0.09768410 -0.28902382 0.07654356 3.41320022 -0.30569684 3.61216954 3.52948830 -0.26250433 -0.03721989 0.00857670 3.84505153 3.54215139 0.07006189 3.76946939 0.00896090 3.64663351 3.84152493 3.51454984 3.58261801 3.84273545 0.00610452 1.66047540 1.49081985 3.53329903 1.76306951 1.52292358 0.00799206 5.21646330 1.49517917 3.57065479 5.24294058 1.44631039 -0.01856173 1.92735705 5.62714677 3.54307519 1.90518282 5.56632897 -0.07564184 5.37841332 5.57891665 3.55485908 5.42049596 5.61617818 1.79596213 -0.06441706 1.47685588 5.35972897 -0.11315384 1.46550176 1.76859383 3.44650970 1.46460245 5.38293540 3.46259669 1.49628353 1.72201906 0.08359376 5.59005138 5.29794607 0.08056408 5.65177811 1.76267417 3.64510152 5.59205510 5.27555812 3.62300411 5.58809215 1.77604521 1.70866212 -0.32229407 5.40431567 1.74520554 -0.28722358 1.77036258 5.21399002 -0.23159430 5.28686155 5.23314943 -0.26684320 1.75847817 1.83863624 3.89591022 5.26334870 1.86217085 3.85143083 1.72416109 5.37961193 3.83457398 5.26953819 5.43545477 3.82909670
-0.01114904 0.02731498 -0.01603259 3.55433200 0.03667949 -0.00729020 -0.03372415 3.55399352 0.03462284 3.57154711 3.49585066 0.01638256 -0.01826610 -0.02322101 3.52390976 3.51712460 0.01344951 3.57832336 -0.00715978 3.49940309 3.59250518 3.53283959 3.50080796 3.52374911 -0.00733318 1.74347282 1.76467115 3.49808218 1.84905792 1.78917846 -0.03587439 5.30190915 1.85284887 3.57041245 5.32889275 1.78205902 -0.02099019 1.77427135 5.30611582 3.61225014 1.77673710 5.30211480 0.01494541 5.36284041 5.33715798 3.54169820 5.30911522 5.32208828 1.76978064 -0.04154234 1.77799643 5.34194375 0.03515639 1.72797732 1.72292435 3.55328670 1.77775618 5.35003370 3.52180688 1.80655562 1.77397302 0.02896243 5.32287306 5.28650936 0.00549761 5.31408443 1.79081592 3.54720561 5.35141255 5.29485091 3.53481309 5.32179587 1.80402813 1.74998328 -0.01049579 5.32000372 1.77090547 0.01156932 1.75329093 5.29005510 -0.00020663 5.29512755 5.29531755 -0.04528623 1.76619646 1.78561700 3.55669651 5.37770603 1.78029387 3.54440435 1.75848066 5.32187486 3.54530467 5.33878948 5.35759445 3.56759228 0.14535204 -0.01169630 0.23696507 3.74696684 -0.00748607 0.21776640 0.17947985 3.50227246 0.24018290 3.76110926 3.45312057 0.24162296 -0.21116854 0.03977440 3.29730218 3.32395692 0.05066276 3.36028940 -0.20595781 3.54045994 3.37111292 3.33663101 3.53393032 3.29618230 0.18641953 1.76383333 1.98637405 3.68984403 1.79079035 2.00272936 0.16572870 5.24898621 2.07903695 3.75704271 5.28979512 2.01652612 -0.20617382 1.79006725 5.07157620 3.44483754 1.83075299 5.05740967 -0.16797068 5.46052519 5.12355035 3.36600435 5.38995645 5.08922215 1.95263319 -0.06025439 2.00649294 5.51407981 0.01505897 1.96404300 1.91931658 3.50451143 2.00866992 5.54445997 3.45545092 2.03532194 1.60077356 0.05642962 5.07912255 5.11637110 0.07312346 5.07921150 1.60165719 3.56085643 5.12509516 5.08501882 3.57943221 5.10600682 1.99088744 1.70818286 0.20947923 5.49671119 1.71436122 0.24074833 1.92261750 5.23623661 0.24719008 5.48536115 5.24795928 0.17747328 1.57483820 1.82119519 3.33423632 5.18141811 1.83551378 3.32184887 1.57881847 5.35222628 3.31345901 5.14357182 5.41195945 3.34149486