-267.61240232
-267.60939544
-267.51087305
-267.63926138
-267.31082010
-267.56991428
-267.28628234
-267.63657428
-267.33950393
-267.67027713
-267.61425215
-267.44333315
-267.45491371
-267.59778926
-267.48945901
-267.52029193
-267.41157293
-267.49039304
-267.48489685
-267.48440560
-267.56933199
-267.52692798
-267.42846585
-267.55129209
-267.58971515
-267.63021640
-267.51676496
-267.41370164
-267.72559650
-267.65054977
-267.61334637
-267.50431042
-267.65381872
-267.54591265
-267.59552120
-267.59489047
-267.44910232
-267.37188293
-267.68402063
-267.63604622
-267.43072062
-267.33534551
-267.63163424
-267.42349540
-267.60877759
-267.39229892
-267.73939765
-267.62908719
-267.57245152
-267.44116126
-267.50866191
-267.67789549
-267.49799925
-267.60773460
-267.51775499
-267.54452277
-267.64001623
-267.49199222
-267.47972676
-267.45681039
-267.44128516
-267.63677312
-267.43887381
-267.67992441
-267.51025261
-267.63381908
-267.40075900
-267.54614531
-267.50961336
-267.54324806
-267.56262274
-267.65679980
-267.60311543
-267.33607998
-267.51257600
-267.45734301
-267.62268799
-267.56157802
-267.58351670
-267.29052875
-267.64560735
-267.47071853
-267.58414724
-267.54863856
-267.67768812
-267.51802896
-267.67072157
-267.48014406
-267.59215014
-267.38781191
-267.59980172
-267.58553856
-267.64803188
-267.46110215
-267.48159556
-267.56943054
-267.54746422
-267.66447469
-267.31435399
-267.18354793
