0.20637719 -0.18168657 -0.68058711 0.06273554 0.19831609 -0.37212005 -0.03017687 0.11690463 -0.71514787 -0.24702951 -0.11305106 0.19728295 -0.29850399 0.00547979 -0.38657628 0.22555699 -0.37690933 -0.51082698 0.36854815 -0.10807945 -0.70885628 -0.12927780 0.38924171 -0.44355858 0.12633155 -0.01574879 0.85569112 -0.24700288 -0.05577212 -0.12182460 -0.16600959 -0.43934847 0.52438114 0.01978918 -0.40997306 0.77449651 -0.16972325 0.09425301 0.21887212 -0.06367665 0.02887991 0.63709340 -0.05980845 0.08231631 0.54584855 -0.03332058 -0.21825872 -0.14546612 0.12897020 0.32403932 0.69207314 -0.03202228 0.08127290 1.00033794 -0.06210859 -0.26316383 0.17502760 -0.13382115 -0.01228485 0.36890733 -0.23672152 0.12837603 0.17874167 -0.08505991 0.15799877 -0.30276175 0.15534030 0.00377472 0.11683056 0.45997291 -0.08733107 0.36303418 0.47694708 0.03238174 0.11459840 -0.39065798 0.13255404 -0.71702387 0.06795737 -0.47339223 -0.21581584 -0.39243431 0.01532148 -0.27939346 0.13523500 0.26422306 -0.39365252 0.00029767 -0.23839003 -0.61588681 0.53127555 0.45398279 -0.06272957 -0.18797933 0.48407326 -0.09098892 -0.00573027 -0.01643657 -0.09080692 -0.00984199 -0.00511642 -0.03115876 -0.01132812 -0.01692669 -0.02692429 -0.00161261 0.01267825 -0.02438404 0.00451762 0.00145247 0.00093757 -0.00305192 -0.01283866 -0.04638169 -0.01213711 0.00065531 0.00791099 0.00083080 -0.01011628 0.00336047 0.00106286 -0.00479938 -0.03278272 0.00238425 0.00171995 0.02963204 -0.02572837 0.00471221 -0.02550267 -0.00391176 0.00181980 0.03509892 0.00093360 -0.00216119 0.00464354 0.00658717 -0.00089772 0.00923758 0.01745910 -0.00613491 -0.00018209 0.00008717 0.03152825 0.01460860 -0.00494212 0.00045678 -0.00002953 0.00577141 -0.00031124 0.00180608 0.00324033 0.01129400 0.00990195 0.01019546 0.00503669 0.00689886 -0.00364731 0.00262898 0.04497923 0.00282740 -0.00139745 0.00719955 0.01176452 0.00073604 0.00082575 -0.01628888 0.01409391 0.02806912 0.00976159 -0.02154573 -0.02437358 -0.00927006 -0.00621026 -0.02265466 -0.00750342 -0.01156536 -0.02814542 0.01488537 -0.01334826 -0.01024354 -0.00927274 0.01298089 -0.01027952 -0.00280727 -0.00923281 -0.00892700 -0.00059518 -0.00473160 0.00077893 -0.00283242 -0.00213438 -0.01805561
-0.05446948 -0.34140132 -0.38222520 0.01087595 -0.11038373 -0.55077701 0.04910379 -0.10341166 -0.43249418 0.05082476 0.54216891 -0.27835763 -0.32698458 0.22439489 -0.08242983 0.13678343 -0.12609532 -0.60820651 -0.11050448 -0.19605111 -0.75417128 0.33838342 -0.24095926 -0.69067873 -0.21539323 0.14371474 0.85827233 0.01449414 -0.03969349 0.87678839 0.00502303 -0.05448173 0.54314422 -0.22263974 -0.14763619 0.31340292 -0.22582473 0.04721570 -0.07563822 0.04925312 -0.00841994 0.06052032 -0.28843942 0.49033270 0.34480969 -0.06754389 0.07751618 0.73752499 0.36309334 -0.16215511 0.42300223 0.06174076 0.10008352 0.76294040 -0.00724130 0.51795489 0.66658171 -0.15692461 0.23079470 0.59765202 0.24165853 -0.36032892 -0.06526346 -0.06187972 -0.33212015 0.27737501 0.12528948 -0.14345530 0.62725430 -0.19845180 -0.46521086 0.13312285 0.20217999 0.25638680 -0.43542113 -0.05938278 0.18536282 -0.79514056 0.46229306 0.05816834 -0.32080497 -0.15728302 0.14169965 -0.64388036 -0.02699450 -0.06431600 -0.42667769 0.16447961 -0.08484745 -0.06804450 0.02208181 0.09991792 -0.61306057 -0.11760091 -0.13474420 0.00088045 0.07415390 -0.01572162 -0.02649591 0.01604344 0.00065417 0.00866033 0.07040965 -0.00569729 0.00598133 0.02300277 0.00612398 0.00275703 0.00604662 -0.00208197 0.00361831 0.05104188 0.00895266 -0.00146847 0.02211022 -0.00362475 0.00010332 0.02505730 -0.01473872 -0.00223753 0.02648809 -0.00427989 0.00744947 0.04922960 0.00044633 0.00465964 0.02161681 0.00832443 0.00340891 -0.01672037 0.00854543 0.00400276 -0.02055098 0.00574655 -0.00771775 -0.00729384 -0.01850557 0.00217918 -0.01506445 -0.00394721 -0.00032348 0.02946258 -0.00524778 -0.00257245 0.00157895 -0.00612907 0.00928931 0.01479963 -0.01016379 0.00591180 0.00923529 -0.01810585 -0.01541727 -0.00786836 -0.00793769 0.00510331 -0.03346010 -0.00353301 -0.02234735 0.01171521 0.00621094 0.00873727 -0.01543063 0.01730519 0.00318542 0.00213415 0.00327542 -0.00519543 0.05055071 -0.00387522 0.00746476 0.05436960 0.00784384 -0.01644581 -0.00406968 0.00027717 -0.01569065 -0.00718087 0.00157749 -0.00101709 0.00560284 0.00203623 -0.00155864 0.05433489 -0.00549350 0.00068381 0.00197789 0.00072394 0.01468996 0.02175246 -0.00257183 0.00337179
-0.14702164 0.05854532 -0.61653209 0.27915407 -0.26653840 -0.18127733 -0.23390990 0.40095201 -0.56718105 -0.03044755 0.68320660 -0.23849795 0.31050310 -0.05227288 -0.45016296 0.02676988 -0.08702031 -0.45536836 0.02235288 0.04839700 -0.73785120 -0.49353861 -0.39586619 -0.44690765 0.14164985 0.03570322 0.85223412 0.44989737 0.05027480 0.66619161 0.00391060 -0.23505832 0.74162043 0.33414401 0.14038185 -0.03360716 0.32639319 -0.14380299 0.22081761 -0.13782627 0.33484391 0.28879089 0.01341914 0.05396401 0.81861352 -0.09353666 -0.19499616 0.87365970 0.29744730 0.22820574 0.44792221 -0.55640187 -0.02584079 -0.01974306 -0.03531980 0.19077364 1.08101612 -0.33268767 0.14996499 0.45928333 -0.17735843 0.15768117 0.63664221 -0.05362277 0.00023086 0.80224027 0.48140949 0.15743239 -0.21520216 0.09373390 0.18686507 0.12230416 -0.27355209 -0.70072434 -0.66257913 -0.29685040 -0.75612369 -0.17201922 0.17369715 0.11133247 -0.95099896 -0.16793960 -0.07460458 -0.28402925 0.16490056 0.02307337 -0.23747941 -0.02045283 0.10222302 -0.72346090 -0.10488854 -0.23980634 -0.51316232 0.03597212 0.05860356 -0.50527604 0.00103587 0.00246476 -0.00888897 0.00854921 -0.00497123 0.02680384 -0.01209224 0.01855767 -0.06230090 -0.01977356 0.02286584 -0.06088276 -0.00716426 -0.01395465 0.00891593 0.00933632 -0.00484174 0.00829567 0.00194433 0.00636858 0.00904493 -0.00363829 0.00005915 -0.02129370 -0.01192349 0.00273348 -0.01643482 -0.00071151 -0.00013027 0.00385109 -0.00804649 0.01005899 -0.03418419 0.00727453 -0.01199411 0.01349427 0.00792034 -0.01021887 0.03480908 0.00286699 -0.00478449 0.00308376 -0.00190823 -0.00813026 0.00092387 -0.00362033 0.00887591 0.00299151 0.00547536 -0.00318527 -0.01090341 -0.01100339 0.01156608 -0.00638245 -0.00998943 0.01150678 -0.00798100 0.00692052 -0.00700341 0.00870898 0.00235715 0.00279160 0.00591382 0.00028391 0.00173608 0.00988726 0.00188206 -0.00831768 0.03251889 0.01299236 -0.00728937 0.04000515 -0.01886455 0.01718315 -0.07699299 -0.01745453 0.01220217 -0.04706609 0.00075057 -0.00184268 -0.00731991 0.00489852 -0.00597592 0.03835442 0.00218091 0.01499737 -0.01906630 -0.00986720 -0.00931831 0.00818853 0.00167677 -0.01216721 0.00552081 -0.00082686 0.00170652 0.01797907
0.09770759 0.12820861 -0.76030060 0.06457484 -0.04961025 -0.67792589 -0.31338954 -0.05929823 -0.00027751 0.52626425 -0.24957334 -0.01257044 0.16750565 -0.14465186 -0.48184046 0.02163567 -0.02618709 -0.42004168 -0.07461086 -0.12706634 -0.77933245 0.10866851 -0.01313770 -0.50828563 -0.34663729 0.21474270 0.40813183 0.13422942 0.29254252 0.69068005 0.04209755 -0.70924116 0.19306796 -0.05991212 -0.33360871 0.38963396 0.36449545 -0.00628891 0.68999104 0.11578843 0.22206315 0.62420982 0.29949938 0.28045987 0.25348549 0.13095065 0.16899083 0.10902249 0.34771472 -0.04437758 0.61664861 -0.03877888 0.38300105 0.57904267 -0.01699979 0.27288702 0.09712803 -0.02294968 0.11039489 -0.08063799 -0.42444347 -0.06230657 0.45842872 -0.30756490 -0.25300221 0.58341474 -0.07358913 0.19518905 0.44193790 -0.22613947 -0.04363100 0.82457662 -0.13645902 -0.22672984 -0.61533022 0.11645824 0.55189987 -0.09537295 -0.01899658 -0.06035027 -0.38803197 0.09365692 -0.15786646 -0.31656569 -0.10680542 -0.11030679 -0.48721051 -0.09990067 -0.20668163 -0.93234952 0.10706402 0.04747392 -0.33904079 -0.47113445 0.01606243 -0.06428564 0.02578373 -0.01630536 -0.00075327 0.04276446 0.00391813 0.00529540 -0.01674622 0.00038098 -0.00119305 0.01543686 0.01475100 -0.00917685 -0.02586556 -0.02132975 0.01646219 -0.02016071 -0.00062575 -0.00316979 -0.01477448 -0.01278824 -0.00379103 0.01783267 0.00573902 0.00358510 -0.00963052 0.00873487 -0.00281512 -0.00145675 0.00303944 -0.00362210 0.02627893 0.01000568 -0.00756631 -0.01252969 -0.00376811 -0.00394985 -0.02913251 -0.01694359 0.00091361 -0.00849884 -0.01093612 0.00028326 -0.02884732 -0.01785015 -0.00875447 0.00280812 -0.00177725 0.00455387 0.02492419 0.00979030 -0.00094143 0.02424052 0.02738333 0.01225923 0.00350754 -0.00260760 -0.00042115 -0.05482369 -0.03503077 0.00276132 0.02221940 0.02984675 -0.00780914 -0.00108790 -0.00658569 0.00148017 -0.01793999 -0.00798725 0.00477348 -0.02970355 -0.00108503 -0.00282828 0.01499243 0.02259583 0.01314082 -0.02231724 -0.01903695 -0.00236696 0.00460050 0.00969133 0.00381408 -0.00295063 -0.00283533 -0.00139166 -0.02165429 -0.02567752 -0.00183466 -0.01612171 -0.00895301 0.00379060 -0.00007569 -0.00560647 0.00321730 -0.04120446 -0.01217928 -0.01427788
0.15309056 0.03094475 -0.79634058 -0.24041758 0.40072613 0.23407896 -0.11402480 0.23724732 -0.98998171 -0.03505186 -0.10036848 -0.54049238 -0.28265461 0.43658884 -0.70817146 -0.13911612 -0.05358525 -0.29386789 0.04820041 -0.13822293 -1.01243391 0.18871871 0.08234599 -0.47550547 -0.05333357 -0.21856340 1.04662788 0.03126152 -0.04747701 0.39108908 0.24192459 0.32141835 0.87023795 -0.13222259 0.13041579 0.34783868 -0.10598504 -0.32845981 0.37845843 0.08131608 -0.05707589 0.71048595 -0.37173681 -0.28171203 0.90629429 0.04767379 -0.41141823 0.14316958 -0.13216351 -0.12464347 0.10442078 0.16533400 -0.13656295 0.21174784 0.17449778 0.23502817 1.15421518 -0.08806483 -0.22547771 0.87158501 0.11244189 0.44093569 1.31138487 0.35097183 0.27235613 0.66904926 0.14310569 -0.03530159 0.65191805 -0.16153529 -0.03563320 0.67488587 0.57142417 -0.59805955 -0.70954952 -0.32642765 -0.14923156 -1.17268272 0.15457961 0.27384028 -0.79211696 -0.27870544 0.23333160 -0.82891493 -0.13331954 0.01869812 -0.15661894 -0.02941441 0.01688209 -0.40174019 0.22960226 -0.16288767 -1.30349553 -0.06996920 -0.02607853 -0.49557548 -0.00117410 -0.02081462 0.01180227 0.01572982 -0.01089078 0.00574576 -0.01625564 0.07920742 -0.02845636 -0.00871885 0.01800551 -0.01130199 -0.00909136 -0.02401007 0.01679123 0.00682422 -0.02821776 0.02227555 0.00591744 -0.00749698 -0.00195956 0.00069307 0.00529698 -0.01400092 -0.01832798 0.04738873 -0.02515360 -0.01653119 0.01501610 -0.01318035 0.00033540 0.01827310 -0.01482281 -0.00835413 -0.00697870 0.00005333 -0.00291555 -0.00003422 0.00864575 -0.01589758 0.03953076 -0.01869761 0.02878520 -0.05675035 0.03995493 0.01227971 -0.01856280 0.01088472 0.00573341 -0.00528849 0.00252981 -0.01536561 0.02867586 -0.00563120 -0.00651123 0.03528272 -0.01142112 0.00134143 0.03356994 0.00677266 0.00950518 0.00247243 -0.00560997 0.00384756 0.01269354 -0.00752280 0.00524582 -0.03562576 0.02116343 -0.00524441 0.01168906 -0.00297520 -0.02396613 0.02653294 -0.00639247 0.00896494 0.00464651 0.00856709 0.00149695 0.00216934 0.00349384 -0.01242095 0.03490549 -0.04106443 0.00525645 -0.02448447 0.01165236 0.01083084 0.01254483 -0.00585419 0.01973285 -0.04563347 0.02198448 -0.00144997 -0.04537799 0.02735558
0.16058100 -0.25896527 -0.54830159 0.20883023 -0.00039449 -0.14911900 0.54402384 -0.07189510 -0.74833825 -0.35113207 0.03451197 -0.54539538 0.70128053 0.14253387 -0.14414583 -0.31083060 0.12194170 -0.40061331 0.05091133 -0.16691608 -0.74384956 -0.15328783 -0.08907213 -0.68742692 0.07417157 -0.23065943 0.85635671 0.00261544 -0.08661308 0.37893005 0.15938210 0.48951199 0.65738601 0.14488431 0.00476706 0.26566994 -0.05412495 -0.23327144 0.14562997 -0.04542394 -0.34622871 0.30063624 0.24775620 0.46061156 0.30376530 0.08849932 0.00639455 0.33124535 -0.15434848 -0.34276736 0.52499343 -0.19358456 -0.13823229 0.23541540 0.19425818 -0.25626822 0.94418342 -0.37075156 0.02975148 1.01694458 -0.08805444 -0.23098640 -0.44208063 -0.01838356 0.19974955 0.36786542 0.40215421 0.23328853 0.62276839 -0.07407375 0.00161730 0.27340320 0.34023563 0.16059016 -0.21178714 -0.63504881 -0.35156215 -0.27514725 -0.06965358 0.03984602 -0.25316237 -0.55730325 0.35126295 -0.18648151 0.03691676 0.12138377 -0.55081052 -0.00624528 0.26054553 -0.32229002 -0.15328009 0.38765915 -0.48972322 -0.12097390 -0.24213498 -0.52652093 0.02498518 0.02434547 0.00098601 -0.00008017 0.00410648 -0.00021546 0.07983976 0.10220397 0.05358461 0.00613122 -0.00109389 -0.00252745 0.01307983 0.00428008 0.00035863 0.01848050 0.01939201 0.02716685 0.00280718 -0.02191195 0.00919715 0.00987572 0.01425382 0.00489904 0.01862024 0.02222948 0.01356922 -0.00502088 -0.01658851 0.00791928 0.01362198 -0.00047457 0.00854333 -0.02362195 0.00317015 -0.02579805 -0.03306547 -0.00821407 -0.02869283 0.01134750 -0.01182627 -0.00178098 -0.00872171 -0.02012271 0.00232009 0.00895193 0.00389553 0.00939623 -0.02055585 -0.02322310 -0.01478912 -0.03560354 -0.03170547 -0.00620941 -0.01749326 -0.01424318 -0.01254667 0.01678964 0.00945786 0.01541745 -0.01095335 -0.00399930 -0.00616308 -0.00286511 -0.00415204 -0.01388646 -0.01954607 -0.01554194 -0.01401443 -0.03118187 -0.01184409 -0.02867047 0.02196150 0.02100354 -0.00032686 0.03925716 0.03776366 0.00548297 0.00857765 0.00648830 0.02328674 0.07053503 0.04070023 0.04698959 0.03597354 0.03459561 0.02675620 0.00261512 -0.00056538 0.01091653 0.02221526 0.02607101 0.01356596 -0.01087213 0.00214462 -0.01067837
0.34346138 0.11126944 -0.57945954 -0.50377790 -0.13489990 -0.31853515 0.27611142 0.35750421 -0.61478013 -0.03497010 0.01358017 -0.20796283 -0.28695677 0.18132678 -0.57767142 0.30234098 0.06597989 -1.02695796 -0.36620963 0.29697209 -1.04643305 -0.04961644 0.47263437 -0.75999129 0.59054490 -0.57041770 0.36873512 0.35199282 0.00342837 0.62629409 0.48039856 -0.07099493 0.72617223 -0.05430887 -0.08854527 0.80873344 0.09232530 -0.40789582 0.76445533 0.62107875 0.17575686 0.49510520 -0.32189643 0.12605707 0.77904715 -0.15842326 -0.11752023 0.73147869 -0.43743142 -0.04321301 -0.17193924 -0.21907269 0.08840340 0.88632776 -0.07394970 0.42976895 0.54134892 -0.26748326 -0.24562941 0.55650670 -0.15568324 0.04507583 1.15878785 0.56173718 0.00055705 0.27681174 0.31302019 0.19946283 0.89922352 -0.02993598 0.15731595 0.31244064 -0.46541146 -0.35234389 -0.20397491 -0.20859329 -0.27710242 -0.34514843 -0.03426778 0.22037830 -0.28986903 -0.11271888 -0.11574265 -1.03304939 -0.44041117 -0.53557493 -0.67809375 -0.23291029 -0.00382627 -0.52495051 0.31346407 -0.18313335 -0.95554950 0.20755300 0.20136821 -0.59710224 -0.01577453 -0.02771031 0.04321782 -0.00319277 0.00642831 0.00918662 0.02115593 0.02806207 -0.02513791 0.01494438 -0.00934166 -0.02917700 -0.02640577 0.01062855 -0.00695337 -0.01111911 -0.02251450 0.00849240 -0.01079062 -0.01618967 0.03705900 -0.04015648 -0.00692425 0.00495760 0.01293469 0.00828269 -0.01776030 -0.00898649 -0.00632246 0.01746920 0.00047909 0.00477934 0.00215393 0.00170148 -0.00837143 0.02374069 -0.02586468 -0.02031520 0.03276678 -0.01932558 -0.07205778 0.05901026 -0.01541883 -0.02196293 0.02313150 -0.03460164 -0.00940943 0.03634726 -0.02595823 -0.01628753 0.00528930 0.01414828 0.01105376 -0.01633579 -0.00315846 -0.00174060 0.01177176 -0.00997742 0.00349947 -0.03437489 0.00198852 -0.01392613 0.01544143 -0.01418174 -0.01463220 0.03032225 -0.03147415 -0.03675757 0.04926077 -0.01159365 -0.01293202 0.02714471 -0.00153381 0.00241024 -0.00973825 0.01592146 0.02719595 -0.02449993 -0.02430852 -0.01931106 0.02779701 0.01813133 0.00843909 -0.03455946 -0.03473110 -0.03307166 0.05509567 0.00359358 -0.00200409 0.00760761 -0.01130384 -0.02030092 0.05454112 -0.00355965 -0.00668420 0.00677092
0.23977050 -0.02942899 -0.06303213 0.03856685 -0.15155738 -0.72845513 -0.06408867 0.09932869 -0.61029241 -0.23218759 0.04853619 -0.40269460 -0.06438391 0.01109950 -0.85537035 -0.05109678 0.13441023 -0.21505353 0.23650704 0.16329946 0.02178109 0.20460525 0.00345327 0.16178600 -0.06354818 -0.10453617 0.27004216 -0.12146669 0.12405512 0.31753536 0.41601720 0.03654883 0.41460117 0.17937455 -0.31192098 0.37308780 0.05084794 0.12111387 0.67709383 -0.19694752 0.46267265 -0.03492054 0.01660761 -0.29512609 0.46782620 -0.26440384 -0.07789651 0.70439895 -0.13217241 0.34387336 0.69176169 -0.00233530 0.45155480 0.87452283 0.04799973 -0.28509154 -0.25691601 -0.13146102 -0.14238704 0.24705012 0.17378561 -0.29212372 0.58234872 -0.37909436 -0.11648661 0.47506053 0.34761918 0.22138452 -0.07308660 -0.04162274 -0.13445829 0.61007179 -0.24641758 -0.15792561 0.00764836 0.07007688 0.01692929 -0.27758552 0.19725264 -0.02522198 -0.57530290 0.09621651 0.06521680 -0.84290953 0.27363498 -0.10022036 -0.61222951 -0.13205410 -0.09828267 -0.93759097 -0.18553508 0.05154137 0.07615190 -0.28006670 -0.03235402 -0.48732877 -0.01425643 -0.00882783 -0.01077830 -0.00074916 0.00129195 0.00104726 0.01520431 0.00635477 -0.00647477 0.01253489 0.03311601 -0.00244434 0.00200675 -0.00055513 0.00200724 0.01097143 0.00153489 0.00091492 0.00842495 0.04209736 -0.00343495 -0.01019347 0.00465858 0.00332209 -0.00641234 -0.01033878 0.02091927 0.00075918 0.01196528 0.00002911 -0.01754618 -0.04218792 0.00208558 -0.01597136 -0.02790256 0.01194843 0.01783752 0.04284970 -0.02365230 0.00344618 0.01383781 -0.00466194 -0.00495544 0.00005631 0.00238396 -0.01271737 -0.03558659 -0.00518155 0.00243508 0.00336473 0.00385484 0.00080464 -0.01508436 -0.00577263 -0.02472229 -0.03495760 -0.01404669 -0.01765872 -0.02605605 0.00103234 0.01041100 -0.00425347 0.00172523 0.01363913 0.05087673 0.00510116 0.00233702 -0.01134171 0.00363253 0.00992969 0.00914222 0.00298248 0.01455533 -0.00300490 -0.00008881 -0.00452876 0.00558421 -0.00194591 0.00079375 0.00043266 -0.00078403 0.00287381 0.00181035 0.00097558 -0.02523006 -0.01840597 0.00717967 0.00172033 0.00050109 -0.00389279 0.00585242 0.01458528 -0.00718230 0.01025856 0.03340458 0.00747605
-0.08590708 -0.16068153 -0.51716790 0.23519765 0.03597174 -0.51990658 -0.24146447 0.37117132 -0.56679842 -0.39583307 0.35283746 -0.57541453 -0.13265767 -0.20135869 -0.33269918 -0.16298359 -0.24426672 -1.21082454 0.08587507 -0.28335011 -0.28385715 -0.22800892 -0.23282044 -0.67968792 -0.15548768 0.11897816 0.80191184 0.33650469 -0.20741924 0.88928047 0.24116895 0.11461593 0.15877479 -0.06693926 0.09609863 0.67862672 -0.04010938 0.02115297 0.08448130 -0.07312424 0.15677491 0.56530906 0.14597476 -0.16066613 0.98050999 -0.28666657 -0.11321473 1.03795095 0.05795691 -0.33483387 0.67094907 -0.15824810 0.00931628 0.39497702 0.04566271 0.00484215 1.15361742 -0.06993549 -0.28900729 0.64078330 -0.00641016 0.25819705 0.58807863 0.07789126 0.16847131 1.25448561 0.02986901 0.13992064 0.23728578 0.21282521 -0.32808529 0.37497338 0.00661764 -0.27583030 -0.76368076 0.05351521 -0.32875913 -0.35207515 -0.06777031 -0.07872580 -0.57274221 0.10236585 -0.03550151 -1.01132296 0.11945825 0.75832107 -0.38053529 0.23384654 0.63382636 -0.98907427 -0.06976382 -0.13820350 -0.95031753 0.25658011 0.17222828 -0.80589095 -0.02733569 0.00288677 -0.01630786 -0.02519721 0.00353698 -0.02406377 -0.01646473 0.00127251 -0.01847677 -0.02936704 -0.00796028 -0.04056279 0.04895979 -0.00120061 0.02686895 0.02109692 -0.00142339 0.04325440 -0.01486262 -0.00407612 -0.00634638 -0.01175438 -0.00194463 -0.00712594 -0.00392413 -0.00234915 0.00201968 0.00094770 0.00373385 0.00481716 -0.00369372 0.00849603 -0.00781363 -0.00404343 0.00051738 0.00740840 -0.00634388 -0.00295575 -0.00220709 0.03592659 0.00661734 0.01348321 -0.00604911 -0.00287948 -0.01577031 0.02343900 -0.01100912 0.00998886 -0.01274953 -0.01796451 -0.01711189 0.02712496 0.01664274 0.00097673 0.00783883 0.00058747 0.00311629 -0.02714618 -0.01169936 -0.01939022 0.02712727 0.01842316 0.03012272 0.01716939 -0.00083486 0.02280668 0.00167015 0.00545608 0.01032115 0.02624765 0.01039792 0.02183814 -0.05401961 -0.00612787 -0.06058966 -0.01027934 -0.00989266 -0.00996649 -0.00193464 0.00133452 0.00227299 -0.00822991 -0.00550939 -0.00440351 0.00222200 -0.01184871 0.00042828 0.02040045 0.01373428 0.01040992 -0.01048262 0.00979459 -0.02883578 0.04744139 0.00443444 0.05529992
0.04040499 -0.15963467 -0.44720126 -0.22243020 -0.20485955 -0.11220702 0.07661545 0.43106169 -0.60243945 -0.22020327 0.37574823 -0.50358235 -0.13389282 0.19209494 -0.70674943 -0.03958033 0.24198946 -0.52591517 0.33789536 -0.56249217 -0.21822227 -0.58766419 -0.27230702 -0.47903712 0.09453193 -0.16653846 0.43677863 -0.12992258 -0.38046525 0.61612510 0.31174918 0.15664773 -0.09220974 0.26954847 -0.00360360 0.04616719 0.09434218 0.07777063 0.26559469 -0.37093951 -0.04030862 0.15274999 0.22307291 0.00902098 0.81200557 0.01878117 0.24478997 0.56380352 -0.10638418 0.09032503 0.18925795 -0.05848882 0.29896932 0.33242345 -0.00028161 0.08724892 0.37063277 -0.13451707 0.62611630 0.26129549 0.31690784 0.09769590 0.37722515 0.05588521 -0.02653334 0.37796581 -0.05466069 -0.33389086 0.47694485 -0.12737536 -0.10968723 0.75625331 0.48708298 -0.29971051 -0.48682815 0.23637918 -0.54236176 -0.28967559 -0.10225532 0.09824547 -0.04133229 -0.18968707 0.27916496 -0.04512174 0.19487034 0.00611987 -0.19440837 -0.04239958 -0.60240605 -0.27588390 -0.12708504 0.06759754 -0.48955091 -0.11029957 0.32419217 -0.52485869 -0.00806461 0.00586997 0.02827674 -0.00885571 0.00515767 0.03057117 0.01560293 -0.00759594 -0.02227493 0.01361954 0.01064508 -0.01251877 -0.00192501 0.00970909 0.00143493 0.00119778 -0.01261676 -0.01936489 -0.02356976 0.02221241 0.04792622 -0.02160176 0.01515550 0.03483017 -0.00279251 0.00653106 -0.00134804 -0.00454222 0.00099768 0.00657964 -0.01078104 0.00514706 -0.00906143 -0.00940773 0.00049587 0.00602508 -0.01120330 0.00679428 0.01919969 0.00810641 -0.00329473 0.00293465 -0.00896612 0.00296670 0.03029840 0.01571364 0.01447143 0.00910006 -0.00772771 0.00761221 0.03425331 -0.01843989 0.01890891 0.02915490 0.01076924 -0.01195139 -0.01608030 0.01571305 -0.03125940 -0.05535924 -0.00790118 0.00363758 0.01374464 -0.00062253 0.00772331 -0.00768531 0.00397533 -0.00647198 -0.01212946 0.01042062 0.02764436 0.03775714 -0.01466745 0.01930123 0.01839496 0.02616964 -0.02767376 -0.04109555 -0.01551206 0.00174329 0.02768778 0.00989964 0.02300079 0.02663962 0.01588971 -0.00746746 -0.03879254 -0.00767939 -0.00780904 0.02176633 -0.01961671 0.00849264 0.03098016 -0.02833127 0.02570596 0.05165561
0.29691097 -0.45067860 -0.23064047 -0.37611277 -0.19591860 -0.54768546 0.22091114 0.22141480 -0.23648067 -0.27906644 -0.28276205 -0.30404357 -0.53009618 0.23066888 0.00073385 0.36197003 -0.01627860 -0.45447001 0.19836694 -0.22545236 -0.43985804 0.03960803 -0.09689481 -0.70025860 0.15725947 0.40767994 0.35881940 0.21873112 0.21024255 0.44426709 0.24181854 -0.49854881 0.09870448 -0.01289084 -0.05674911 0.61096490 -0.36010634 -0.00434167 -0.05963279 0.34661779 0.21476693 0.91342206 -0.03656002 0.17443895 0.69070048 -0.05936773 0.16463393 0.48579557 -0.01930619 -0.28789762 -0.22205635 -0.22686349 0.13630864 1.04340878 -0.24867784 0.10528522 0.28007699 -0.13828170 -0.16477266 0.15858330 0.02981060 -0.26835113 0.77125455 0.02571652 -0.38615455 0.05970552 -0.03131720 0.06360014 0.93471693 -0.08540113 -0.36978427 0.33199226 0.04183525 -0.00759624 -0.52128819 -0.13657662 0.74506574 -0.72822650 0.02726557 -0.04993600 -0.58060927 0.13368252 0.26949078 -0.59815358 -0.19963857 0.24334240 -0.38058046 0.20074682 -0.23453711 -0.14691332 0.16188190 0.02659832 -0.70715052 0.03712985 0.38311696 -0.32509837 -0.00572752 0.00063221 -0.04288686 0.00616521 -0.00210434 -0.00656809 0.00489187 -0.00020818 0.02751031 0.00265590 0.00223212 0.02423684 0.00707015 -0.00520005 0.01568260 0.00315525 0.00120283 0.00717694 -0.00595544 0.00570191 0.00857821 0.00068539 0.00186072 0.02699581 0.00008846 0.00221148 -0.02036504 -0.00364091 -0.00169815 -0.00728677 0.00157382 -0.01643246 -0.00703441 0.00313579 0.00024287 -0.01309929 -0.00102068 0.00032541 0.00386384 0.00382268 0.00088408 0.00116354 0.00405482 0.00512843 -0.02014436 -0.00787332 -0.00405667 -0.00996380 0.00995427 -0.00744631 -0.08283938 0.00395266 -0.00800680 -0.02063455 -0.00314372 0.00385550 -0.00408390 -0.00287643 -0.00456622 -0.01018001 -0.00335708 -0.00382490 0.04120505 -0.00880527 0.00670745 -0.02592144 0.00628802 -0.01244548 -0.00822037 0.00341187 -0.00073964 0.01534887 -0.00605826 0.00135459 0.01156055 0.01019324 0.00826295 -0.02256659 0.00071704 0.00106346 0.05608052 -0.01621273 0.01275427 -0.01132521 0.00581732 0.00072772 0.05763145 -0.00174994 -0.00037266 -0.00944191 -0.00627189 0.01231130 0.02297033 0.00958293 -0.00255384 0.04367628
0.05264617 -0.06257674 -0.50614918 0.23661831 -0.03960116 -0.80637835 -0.17807959 0.05980542 -0.55541839 0.23112651 0.05581286 -0.26598093 -0.25679419 -0.43455935 -1.19159437 0.14042190 -0.26939669 -0.53255496 0.13867353 0.19000403 -0.96850435 -0.13214712 0.01963105 0.03484076 0.22124900 0.04106151 0.17787774 0.02966663 0.17702422 0.20989904 0.17204931 -0.12177481 0.29124363 0.22358308 -0.19624228 0.22636266 -0.46129719 0.26555254 1.14023717 0.13791902 -0.17335723 0.29106692 0.18728309 0.00379237 0.61201932 -0.56759387 -0.28501387 0.21889150 -0.48979915 0.32664675 0.18275740 -0.06809454 -0.11577387 1.07735311 -0.17005827 -0.15813556 0.61408751 -0.05959290 0.22761505 0.29491009 0.45344270 -0.30601156 0.82289563 0.13940668 0.34619610 0.63023187 0.39238808 0.34591171 0.72079353 -0.27698485 -0.40433658 0.57149195 -0.37247429 -0.04672508 0.10064377 0.15850814 0.22865227 -0.75170865 0.12382393 0.13817583 -0.69736996 0.08844341 0.13636376 0.35595078 0.31612422 0.21961637 -0.75701272 -0.04679139 0.07222554 -0.82450562 -0.13834313 -0.43725462 -0.01322484 -0.22532320 0.19667200 -0.70315206 0.00565471 0.02182343 0.00516086 0.00412469 -0.00244677 -0.00288226 0.00237060 0.01873460 -0.00837466 0.00091927 0.00730776 -0.00126859 0.02776036 0.05405004 0.00187772 -0.00904129 0.04496677 0.01543415 0.00243755 0.04319105 0.00914317 0.00598532 0.04185240 0.01100614 -0.00129686 0.01032674 -0.00146628 -0.00463362 -0.01726168 -0.00565717 0.00539016 0.02248400 0.00941869 0.00299261 0.00458724 -0.00128375 0.00163588 0.08536205 0.02005811 0.00783266 0.01308175 0.00382872 0.00417051 0.03485976 0.00838327 0.00048278 0.01509290 0.00179970 -0.00571230 -0.04508119 -0.01059474 0.00082019 0.01836633 -0.00311497 0.00888027 0.01971865 -0.00306155 0.00698756 0.02014172 0.01424376 0.01088329 0.06835729 0.01755805 0.00509646 0.03759540 0.01307771 -0.00497535 0.01210005 0.00345480 0.00424267 0.02946378 -0.00053198 -0.00996846 -0.02158074 -0.00359834 0.01203459 0.03742372 0.01305561 -0.00340562 0.00422005 0.01954920 -0.02411443 -0.01940688 -0.00396997 0.01771259 0.05959745 0.01613840 -0.00184170 0.00386888 -0.00155207 0.00056404 0.00169360 -0.00366286 0.00594060 0.01468207 0.00211997
0.23817748 -0.08614316 -0.65875550 -0.30162649 0.33138474 -0.36709520 -0.53693017 0.38647674 -0.26639545 -0.18369928 -0.27025758 -0.89893683 -0.08561535 0.37786135 -0.44076737 -0.18330023 0.01835130 0.01993868 -0.19710071 -0.09197970 -0.62887985 0.10363164 0.57033598 -0.69663150 0.08692245 -0.00441645 0.85286160 0.33689488 -0.37296991 -0.06891699 0.06843556 0.07879101 0.34626361 -0.01462817 -0.02997807 0.79751554 -0.13691401 -0.59271262 0.11422272 0.03049001 -0.41724118 1.00294145 0.09692756 0.21158351 1.01781489 -0.33110239 0.00849081 0.42136476 -0.12092613 0.09965924 0.45250314 -0.11078902 0.29117662 0.69232802 -0.04324547 -0.02517025 0.94620499 -0.11852771 -0.12121137 0.52976369 0.11307788 -0.10670747 0.58866306 0.06007301 0.26383344 0.00229361 0.24004630 0.12165773 0.78269099 -0.08189545 0.07803273 0.75974011 0.41799337 -0.26207898 -0.34015176 -0.19015026 -0.05754894 -0.47291358 0.14356032 0.25713423 -1.01224294 0.47301888 -0.17184898 -0.64414543 -0.15767454 -0.21372288 -0.93702477 0.27936962 -0.21212190 -0.63948460 0.16322054 0.12889263 -0.62113862 -0.05771410 -0.18755260 -0.63363044 0.00518952 0.00580859 -0.00630195 0.00394247 0.00141924 -0.02407794 -0.00024285 0.01613102 0.04516732 -0.00069411 -0.01038235 0.01202974 -0.00112694 0.00426007 0.01181497 0.00038631 -0.00362989 -0.01336500 -0.00289073 -0.01066495 -0.03335569 0.00141470 -0.00870338 -0.04343200 0.00377617 -0.00103930 -0.01526208 -0.00509837 -0.00508008 0.00807431 -0.00710103 0.00956583 0.04333657 -0.01040322 0.01613110 0.07176754 -0.00729864 -0.02371660 -0.04034533 -0.00280445 0.00225569 -0.00064493 0.00605096 -0.00988857 -0.03650419 -0.00243214 0.00184540 0.00962362 0.00271658 -0.01167664 0.00102197 0.00431601 0.00528896 0.00099529 0.00696087 0.00910755 0.01742857 0.00008548 0.00202568 -0.00253906 -0.00014653 0.01369765 0.04521991 -0.01206486 -0.00591863 0.00343396 -0.01403522 -0.01631435 -0.05411571 0.01908313 -0.00240242 -0.01721699 -0.00279551 0.01010441 0.02715070 -0.02611783 -0.00810055 0.01427160 -0.01131554 -0.00139611 0.00007744 0.00262032 0.02028672 0.05165629 0.00271296 -0.00678806 -0.01947881 0.00530908 0.00052739 -0.00133161 0.01547852 0.00251609 -0.01081366 -0.00246711 -0.00944510 -0.01945321